[ 5 ]
1
[ 234 ]
11
[ 235 ]
10
[ 258 ]
3
81
116
[ 259 ]
66
134
163
166
178
[ 260 ]
5
32
57
65
73
82
96
100
103
104
112
141
171
172
[ 261 ]
6
7
56
58
60
68
69
77
87
93
105
106
111
115
150
155
180
181
182
[ 262 ]
2
12
16
44
55
61
89
99
101
107
135
140
144
145
152
157
179
184
[ 263 ]
13
41
49
52
53
54
62
64
76
78
91
98
132
133
137
143
156
161
185
[ 264 ]
4
40
46
47
51
84
94
102
148
154
175
177
[ 265 ]
8
9
42
92
95
136
149
[ 266 ]
38
97
146
151
[ 267 ]
129
[ 288 ]
113
[ 289 ]
110
227
[ 290 ]
168
170
210
211
223
[ 291 ]
67
80
109
122
153
164
165
169
173
194
197
200
212
230
239
[ 292 ]
14
36
37
39
43
45
50
71
79
85
108
114
120
193
202
220
224
234
[ 293 ]
34
63
72
75
86
117
123
158
189
199
213
226
240
[ 294 ]
15
35
59
88
126
139
142
147
159
162
167
174
186
218
219
221
231
233
235
238
[ 295 ]
20
30
74
83
118
119
138
183
187
188
217
229
232
242
243
244
[ 296 ]
31
48
90
131
198
[ 297 ]
27
28
33
130
160
176
192
[ 298 ]
26
[ 299 ]
22
190
[ 300 ]
191
[ 322 ]
70
241
[ 323 ]
121
206
[ 324 ]
125
209
225
[ 325 ]
124
204
208
222
228
245
[ 326 ]
196
201
203
205
207
215
236
246
252
257
[ 327 ]
24
195
214
216
237
247
253
258
[ 328 ]
17
259
[ 329 ]
25
260
[ 330 ]
18
19
23
[ 331 ]
263
[ 332 ]
29
[ 333 ]
21
[ 334 ]
128
[ 335 ]
127
[ 356 ]
248
250
[ 358 ]
251
254
[ 359 ]
249
262
268
[ 361 ]
255
261
280
[ 362 ]
256
265
[ 389 ]
290
[ 390 ]
267
278
[ 392 ]
292
333
[ 393 ]
269
274
287
289
[ 394 ]
272
294
[ 395 ]
266
279
286
[ 396 ]
264
277
[ 398 ]
332
[ 420 ]
336
[ 421 ]
288
291
296
[ 422 ]
312
[ 423 ]
282
331
[ 424 ]
281
293
334
339
[ 425 ]
270
273
283
284
285
338
[ 426 ]
271
275
335
341
[ 427 ]
329
[ 430 ]
276
[ 454 ]
300
323
326
[ 455 ]
322
325
337
340
[ 456 ]
295
302
304
318
327
330
[ 457 ]
2153
[ 458 ]
297
298
299
301
313
328
[ 459 ]
303
320
324
[ 460 ]
342
2249
[ 461 ]
2283
[ 462 ]
2383
[ 465 ]
2388
[ 485 ]
307
310
[ 487 ]
308
309
[ 488 ]
311
316
2102
[ 489 ]
306
314
319
348
349
[ 490 ]
317
345
1887
[ 491 ]
344
1997
2223
2250
[ 492 ]
321
343
357
2160
2396
2489
4213
[ 493 ]
346
352
654
1831
1954
1998
2155
2157
2242
2248
2274
2395
4334
[ 494 ]
350
1743
1746
1888
1983
1992
2158
2170
2240
2243
2361
[ 495 ]
1745
1963
2011
2012
2042
2165
2228
2246
2271
2279
2282
2288
2292
2362
2363
2984
[ 496 ]
1742
1965
2125
2280
2358
2360
2386
[ 497 ]
2108
2209
2227
2276
2476
4772
[ 498 ]
2159
2389
[ 499 ]
2379
[ 500 ]
2147
2380
[ 519 ]
305
[ 520 ]
315
[ 521 ]
498
1884
2038
2067
[ 522 ]
351
764
1744
1921
1996
2019
4190
[ 523 ]
1388
1657
1740
1850
1962
1975
2066
2107
2123
2163
2504
4216
4249
[ 524 ]
376
1512
1516
1766
1803
1817
1956
1984
1995
2180
2216
2245
2322
2484
2490
2492
2499
4204
4215
[ 525 ]
347
353
1553
1741
1768
1877
1915
1955
1961
1967
1973
1977
1985
2013
2017
2022
2028
2040
2043
2059
2124
2171
2234
2247
2275
2480
3279
4212
4222
4248
4265
4302
4779
[ 526 ]
354
500
1805
1807
1809
1832
1879
1883
1885
1893
1924
1940
1957
1966
1976
1994
2026
2045
2115
2122
2144
2166
2172
2173
2190
2219
2241
2252
2269
2272
2296
2324
2376
2387
2508
2512
3292
4256
4300
4307
4324
4333
4643
[ 527 ]
355
360
417
1510
1511
1514
1667
1730
1775
1778
1882
1886
1898
1910
1912
1914
1937
1938
1951
1952
1974
1986
1989
1993
2002
2010
2101
2109
2111
2140
2141
2220
2222
2232
2244
2253
2278
2293
2317
2385
2487
2520
2963
4210
4221
4303
4311
4332
4471
[ 528 ]
1509
1666
1739
1808
1818
1878
1936
1942
1953
1972
2000
2027
2039
2068
2143
2154
2181
2191
2211
2224
2286
2391
2403
2428
2474
2488
3289
4191
4209
4251
4264
4266
4297
4315
4320
4336
4429
4443
4731
4740
[ 529 ]
1506
1824
1931
1933
1999
2036
2152
2183
2206
2215
2217
2233
2277
2423
2446
2475
2510
4293
4322
4330
4335
4357
4434
4736
[ 530 ]
492
1508
1531
1913
1946
2156
2260
2285
2478
4317
4326
[ 531 ]
1505
1900
1988
1990
2178
2281
2382
4367
[ 532 ]
1906
2151
2381
2384
[ 533 ]
1507
[ 548 ]
709
[ 551 ]
658
1370
1371
[ 552 ]
1435
2047
4238
[ 553 ]
372
425
437
1412
1447
1867
[ 554 ]
364
382
477
622
625
655
659
1369
1397
1433
1434
1750
3895
[ 555 ]
377
381
424
432
433
482
1285
1375
1413
1426
1448
1754
1814
1870
1871
1880
1948
2044
2046
2103
2235
2725
2849
2850
2852
2962
3240
3242
4188
4214
4230
4234
4257
4316
4967
[ 556 ]
374
380
427
501
648
656
1365
1374
1386
1387
1396
1411
1430
1432
1442
1467
1469
1672
1680
1774
1848
1889
1895
1926
2005
2007
2015
2029
2030
2034
2055
2342
2485
2585
2837
4193
4195
4197
4207
4218
4220
4226
4254
4255
4261
4477
4491
[ 557 ]
404
431
473
502
608
649
650
652
653
657
1377
1389
1444
1501
1502
1544
1548
1651
1762
1770
1795
1804
1813
1847
1864
1876
1894
1979
2001
2032
2074
2179
2184
2203
2236
2359
2486
2498
2513
2583
2739
2740
2950
3276
3285
3301
3355
3991
4173
4185
4196
4202
4203
4208
4211
4217
4219
4231
4236
4237
4262
4294
4304
4308
4345
4481
4490
4610
[ 558 ]
356
375
420
428
430
479
496
609
1428
1518
1520
1547
1669
1751
1761
1820
1821
1849
1944
1964
1982
2023
2024
2041
2070
2092
2110
2114
2121
2164
2189
2205
2208
2230
2238
2270
2364
2365
2461
2494
2497
2518
2568
2586
2726
2851
2977
3230
3274
3290
3322
3329
3352
3354
3362
4012
4082
4200
4201
4223
4225
4227
4232
4250
4276
4281
4291
4329
4536
4758
4961
[ 559 ]
1410
1429
1498
1503
1513
1515
1529
1588
1668
1735
1738
1764
1771
1785
1812
1825
1827
1828
1920
1971
1980
2004
2006
2014
2016
2021
2035
2037
2057
2073
2076
2105
2133
2167
2168
2169
2188
2212
2214
2221
2239
2261
2287
2295
2323
2332
2356
2366
2373
2397
2483
2491
2493
2495
2505
2516
2584
2588
2843
2978
3243
3244
3271
3277
3293
3300
3337
3360
3363
4187
4189
4260
4267
4269
4270
4290
4301
4309
4312
4314
4318
4327
4331
4337
4417
4425
4441
4478
4501
4540
4649
4714
4718
4766
4768
4775
4781
4785
4795
4938
[ 560 ]
1392
1542
1748
1749
1767
1772
1779
1788
1816
1830
1853
1890
1891
1909
1922
1928
1941
1968
1987
2069
2071
2100
2137
2145
2196
2202
2207
2210
2226
2231
2294
2431
2432
2496
2503
2507
2514
2724
2827
2841
2974
3216
3238
3251
3291
3294
3332
4235
4253
4259
4278
4292
4298
4299
4305
4306
4319
4321
4328
4342
4355
4369
4408
4427
4428
4435
4566
4589
4602
4618
4627
4671
4709
4729
4738
4744
4746
4767
4773
4783
4792
4860
[ 561 ]
1393
1519
1537
1769
1776
1798
1806
1826
1875
1899
1901
1907
1978
2033
2061
2065
2134
2135
2138
2186
2254
2256
2257
2289
2392
2394
2398
2473
2479
2500
2502
2506
2509
2589
2734
2736
2855
2871
3203
3249
3256
3320
3349
3940
3998
4042
4186
4263
4268
4274
4323
4340
4353
4360
4371
4430
4432
4449
4450
4468
4492
4496
4573
4623
4625
4635
4647
4658
4672
4713
4739
4776
4782
4790
4793
[ 562 ]
358
494
1497
1552
1737
1786
1819
1829
1833
1855
1902
1905
1911
1930
1991
2003
2031
2136
2142
2225
2262
2264
2273
2284
2298
2302
2316
2326
2370
2390
2393
2424
2425
2471
2793
3255
3288
4018
4252
4280
4313
4343
4344
4352
4363
4368
4390
4396
4397
4398
4420
4424
4433
4438
4453
4458
4469
4597
4631
4645
4655
4732
4737
4748
4791
[ 563 ]
1734
1810
1892
1908
1932
1943
1947
1970
1981
2146
2185
2259
2263
2268
2290
2378
2455
2519
2523
2832
3253
4310
4354
4356
4358
4361
4370
4392
4405
4406
4440
4448
4472
4473
4498
4646
4707
4721
4741
4806
[ 564 ]
1545
1725
1881
2132
2139
2148
2150
2218
2266
4347
4348
4439
4451
4452
4580
4624
4659
4747
4749
[ 565 ]
2149
2267
4366
4399
[ 566 ]
2213
2377
2522
[ 567 ]
4403
4578
[ 569 ]
4021
[ 580 ]
680
[ 581 ]
734
[ 582 ]
691
729
[ 583 ]
475
727
760
1653
4240
[ 584 ]
567
582
639
662
671
682
694
728
731
746
783
1438
2051
[ 585 ]
612
620
628
661
692
693
777
866
1337
1409
1655
1689
1872
4839
[ 586 ]
418
423
436
441
443
483
499
627
636
660
667
696
698
739
819
823
1292
1436
1437
1643
1649
1670
1693
2053
2056
2192
2738
4233
4246
4861
4879
4968
4986
[ 587 ]
405
459
472
474
522
566
585
633
643
672
745
761
763
778
824
1335
1373
1468
1471
1475
1647
1650
1673
1684
1755
1959
2048
2052
2075
2099
2729
2854
2956
2987
3966
3989
4199
4271
4862
4908
4915
4989
4990
4992
4997
5001
[ 588 ]
361
371
373
439
457
471
476
487
495
586
589
616
624
629
631
632
635
637
638
645
822
867
1309
1379
1384
1400
1445
1446
1452
1470
1646
1658
1663
1675
1677
1681
1685
1686
1763
1799
1845
1869
1874
1916
1917
1945
1958
1960
2025
2054
2058
2064
2082
2094
2117
2187
2195
2229
2321
2330
2579
2659
2731
2769
2823
2907
2909
3241
3273
3369
3488
4229
4247
4588
4771
4858
4875
4966
4978
4983
4985
4996
[ 589 ]
370
384
403
406
440
621
641
647
1323
1341
1344
1347
1378
1381
1415
1439
1589
1656
1659
1662
1671
1674
1682
1694
1695
1717
1728
1747
1765
1793
1836
1866
1919
2077
2087
2098
2104
2128
2162
2319
2341
2833
2910
2959
2980
3229
3266
3275
3283
3287
3330
3357
3358
3975
4184
4194
4198
4275
4338
4426
4475
4485
4538
4546
4592
4801
4817
4848
4906
4909
4921
4922
4934
4960
[ 590 ]
379
416
438
583
615
626
1291
1303
1304
1322
1333
1336
1345
1414
1427
1441
1453
1500
1530
1541
1546
1571
1587
1595
1648
1664
1687
1688
1690
1691
1703
1732
1784
1787
1800
1834
1873
2018
2020
2112
2177
2320
2399
2407
2581
2587
2592
2652
2683
2727
2735
2848
2856
2939
2966
2981
3232
3237
3247
3248
3268
3269
3286
3307
3312
3316
3321
3335
3348
3361
3367
4011
4168
4170
4206
4277
4414
4508
4513
4544
4587
4755
4784
4794
4859
4993
[ 591 ]
363
378
400
426
429
435
493
617
618
1293
1343
1363
1372
1483
1494
1525
1568
1596
1654
1665
1679
1711
1712
1724
1727
1777
1792
1796
1835
1842
1856
1949
1950
2062
2072
2081
2113
2116
2126
2127
2251
2305
2318
2325
2336
2357
2482
2501
2515
2580
2597
2633
2642
2677
2680
2737
2801
2804
2836
2845
2847
2853
2883
2897
2971
2979
3057
3171
3180
3188
3250
3267
3270
3280
3308
3309
3317
3325
3331
3334
3347
3351
3372
4009
4023
4192
4205
4228
4279
4286
4288
4289
4364
4377
4410
4442
4497
4506
4512
4517
4525
4539
4556
4605
4611
4612
4617
4669
4677
4690
4764
4786
4798
4816
4821
4825
4856
4864
4881 # this
[ 592 ]
389
401
415
421
1340
1380
1443
1489
1495
1517
1521
1574
1621
1652
1736
1780
1789
1790
1791
1801
1802
1843
1852
1918
1939
2085
2095
2130
2161
2201
2329
2350
2354
2429
2462
2472
2517
2521
2529
2567
2570
2572
2651
2688
2689
2690
2762
2795
2798
2829
2835
2838
2842
2936
2976
2982
3161
3218
3223
3258
3260
3263
3284
3302
3310
3311
3314
3318
3327
3328
3339
3343
3350
3366
3370
3978
3997
3999
4041
4081
4282
4283
4295
4359
4365
4372
4389
4407
4419
4422
4444
4455
4460
4479
4489
4493
4495
4504
4510
4529
4535
4549
4572
4595
4640
4663
4715
4726
4727
4733
4756
4763
4789
4797
4799
4804
4809
4865
[ 593 ]
386
497
1310
1342
1488
1540
1549
1729
1731
1840
1841
1857
1896
1903
1923
1925
1934
1935
2063
2091
2106
2193
2301
2347
2348
2375
2404
2422
2427
2511
2531
2569
2611
2657
2821
2828
2839
2964
2965
2967
2970
2983
3228
3252
3259
3278
3295
3297
3326
3342
3359
3364
3478
3484
4017
4028
4049
4050
4224
4258
4287
4296
4373
4374
4400
4402
4437
4457
4464
4484
4533
4537
4562
4565
4569
4590
4593
4594
4599
4601
4619
4622
4626
4628
4629
4636
4637
4638
4651
4660
4681
4752
4759
4769
4877
[ 594 ]
390
1382
1490
1523
1524
1527
1533
1599
1699
1733
1782
1815
1929
1969
2060
2176
2204
2237
2300
2303
2328
2338
2343
2430
2434
2435
2438
2481
2530
2582
2750
2797
2802
2844
2846
2975
3186
3257
3265
3313
3338
3356
3365
3511
3993
3996
4013
4015
4272
4284
4349
4362
4376
4380
4388
4436
4467
4480
4482
4494
4503
4518
4526
4528
4530
4531
4550
4561
4568
4570
4583
4600
4653
4657
4662
4665
4676
4683
4684
4698
4708
4710
4716
4724
4734
4743
4750
4754
4760
4761
4762
4770
4778
4820
[ 595 ]
419
1385
1390
1526
1535
1760
1811
1822
1823
1851
1854
1897
1904
2120
2175
2182
2258
2291
2297
2306
2314
2335
2339
2367
2374
2416
2418
2426
2445
2449
2454
2466
2470
2524
2526
2528
2590
2620
2630
2914
2934
2937
3051
3053
3084
3182
3264
3323
3346
4019
4409
4413
4415
4454
4488
4564
4575
4582
4591
4596
4634
4639
4666
4667
4680
4702
4705
4706
4717
4722
4757
4774
4796
[ 596 ]
1528
1554
1555
2255
2299
2310
2311
2334
2368
2369
2439
2443
2448
2477
2743
2752
2816
2957
3177
3201
3333
3344
4004
4022
4084
4086
4341
4351
4375
4447
4527
4563
4574
4620
4673
4700
4728
4742
4780
[ 597 ]
2131
2309
2637
4394
4446
4487
4571
4719
[ 598 ]
1504
1863
2265
2419
3189
3208
3299
4025
4401
4418
4456
4703
[ 599 ]
1532
2174
2421
4404
[ 600 ]
2436
[ 601 ]
2371
3075
[ 612 ]
1637
[ 613 ]
714
[ 614 ]
663
713
715
716
808
818
[ 615 ]
442
598
679
704
730
748
749
756
759
[ 616 ]
367
623
681
684
687
688
702
710
743
747
755
766
810
2989
4998
[ 617 ]
461
478
519
587
600
611
640
651
675
678
686
690
695
701
723
738
741
744
753
769
771
772
786
826
828
858
1356
1417
1601
1644
1645
1757
2050
2603
4239
4907
4977
[ 618 ]
369
458
460
468
481
526
570
574
576
594
634
644
666
699
735
736
740
751
775
781
782
799
807
814
816
864
1416
1450
1640
1683
2008
2089
2676
4511
4802
4853
4869
4870
4910
4914
4963
4976
4999
5000
[ 619 ]
366
456
467
484
486
490
503
528
565
568
590
603
664
674
676
706
707
732
767
768
773
779
780
802
803
804
820
839
1290
1440
1593
1594
1629
1636
1638
1676
1773
2682
2701
2772
2773
2864
2866
2960
2998
3717
4241
4841
4874
4888
4932
4939
4941
4969
4973
4981
4984
4987
[ 620 ]
365
413
480
491
506
569
578
595
596
607
610
619
630
646
683
685
689
697
765
784
785
801
865
1125
1331
1361
1451
1465
1485
1570
1573
1590
1600
1603
1639
1678
1709
1713
1837
2009
2655
2728
2908
2943
3543
3683
3755
3801
3810
4174
4176
4243
4244
4688
4866
4880
4891
4894
4897
4913
4918
4919
4929
4940
4943
4965
4995
[ 621 ]
402
409
434
444
446
450
462
489
505
525
593
604
642
673
737
843
851
873
1300
1306
1394
1420
1421
1458
1482
1567
1606
1660
1697
1758
1783
2078
2088
2129
2199
2406
2591
2703
2730
2732
2803
2906
2911
2925
2946
2949
3236
3315
3319
3375
3413
3447
3494
3578
3716
4010
4157
4242
4245
4555
4691
4813
4818
4838
4845
4868
4878
4895
4904
4924
4942
4955
4975
4994
[ 622 ]
362
383
422
463
466
488
532
534
551
573
584
849
853
854
885
1284
1301
1314
1321
1325
1326
1329
1368
1391
1487
1692
1696
1704
1710
1753
1781
1838
1868
2096
2097
2409
2601
2602
2604
2624
2679
2681
2684
2723
2733
2751
2819
2826
2928
2955
2988
2996
3231
3234
3235
3262
3371
3440
3453
3500
3868
3875
3953
4002
4007
4090
4092
4161
4167
4520
4548
4608
4614
4668
4694
4765
4803
4805
4812
4815
4819
4829
4835
4857
4867
4889
4896
4905
4933
4935
4937
4944
4947
4956
4988
4991
[ 623 ]
398
407
507
830
856
1351
1364
1376
1399
1404
1431
1460
1473
1486
1499
1522
1572
1602
1698
1714
1846
1861
2079
2093
2200
2304
2433
2571
2578
2596
2606
2623
2654
2675
2700
2757
2765
2796
2805
2817
2824
2825
2872
2873
2884
2885
2891
2895
3056
3170
3172
3353
3378
3416
3417
3418
3444
3449
3471
3499
3508
3605
3916
3926
4001
4055
4164
4502
4507
4523
4542
4675
4679
4693
4823
4831
4844
4846
4847
4854
4872
4873
4970
4980
[ 624 ]
387
388
846
1327
1332
1346
1352
1353
1395
1491
2080
2198
2327
2337
2544
2594
2605
2678
2685
2696
2720
2748
2753
2754
2755
2756
2759
2760
2771
2785
2812
2818
2868
2870
2880
2898
2924
2929
2938
2954
3066
3168
3194
3206
3214
3368
3373
3414
3452
3465
3470
3477
3483
3493
3503
3509
3880
3887
3889
3904
3929
3958
3968
3973
3976
3984
4014
4044
4063
4091
4135
4152
4172
4339
4378
4385
4423
4463
4470
4476
4516
4519
4543
4552
4557
4579
4616
4644
4689
4697
4699
4711
4787
4788
4824
4842
4855
4876
4971
[ 625 ]
414
445
1286
1294
1315
1334
1360
1418
1463
1472
1492
1569
1722
1759
1858
2331
2349
2351
2411
2412
2537
2574
2631
2661
2686
2763
2774
2781
2807
2820
2822
2862
2882
2896
2932
2958
2961
2968
3017
3065
3185
3233
3306
3345
3376
3454
3464
3474
3495
3906
3937
3946
3972
3995
4016
4020
4027
4036
4273
4285
4379
4383
4431
4459
4483
4499
4547
4551
4553
4558
4576
4606
4641
4650
4664
4674
4685
4686
4704
4720
4723
4751
4800
4807
4810
4811
4822
4852
4957
4979
[ 626 ]
396
1296
1348
1350
1355
1551
1598
1702
1726
1839
1927
2413
2450
2453
2560
2609
2626
2634
2687
2699
2742
2761
2767
2770
2782
2834
2903
2931
2973
2985
3049
3055
3063
3078
3085
3166
3167
3169
3178
3183
3207
3213
3246
3281
3296
3303
3341
3475
3482
3498
3788
3789
3871
3908
3931
3965
3977
3982
3992
4000
4006
4008
4034
4040
4053
4054
4147
4381
4486
4509
4514
4521
4522
4567
4577
4581
4584
4586
4598
4603
4607
4670
4678
4682
4696
4701
4725
4753
4882
[ 627 ]
359
1295
1305
1462
1493
1534
1538
2118
2197
2402
2467
2532
2533
2535
2575
2621
2647
2653
2692
2711
2722
2741
2749
2766
2791
2792
2799
2860
2881
2902
2904
2915
3175
3181
3191
3193
3195
3225
3261
3298
3324
3386
3467
3719
3891
3893
3936
3943
3967
3971
3990
4039
4043
4052
4325
4411
4421
4445
4461
4466
4524
4532
4559
4609
4648
4735
[ 628 ]
385
394
1539
1559
1860
2346
2355
2372
2459
2463
2563
2564
2635
2830
2900
3050
3086
3159
3160
3163
3200
3202
3211
3215
3920
3987
3994
4047
4048
4085
4350
4534
4554
4585
4604
4621
4632
4642
4745
4777
4808
[ 629 ]
1302
1338
1536
1723
2090
2119
2451
2464
2525
2664
2899
3164
3176
3196
3210
3217
3219
3226
4030
4079
4346
4395
4730
[ 630 ]
1550
1862
2313
2527
3020
3340
3377
4026
4391
4630
4633
4654
4656
4661
[ 631 ]
2307
2458
2465
2559
3052
3074
3076
3209
3955
4045
4046
[ 632 ]
2308
2420
2444
2447
2456
2457
3304
3986
[ 633 ]
1557
3197
4393
[ 646 ]
712
720
742
757
762
2049
[ 647 ]
677
705
717
722
733
1642
[ 648 ]
520
563
711
724
758
797
813
845
[ 649 ]
470
518
591
703
719
725
726
750
754
770
798
1185
1243
1641
1705
1706
1756
4899
4972
[ 650 ]
562
575
577
579
599
700
788
806
809
815
817
825
829
833
857
863
886
2704
4141
4884
4923
4926
4959
[ 651 ]
408
410
485
521
561
564
571
580
597
601
602
613
665
776
800
868
872
875
883
1580
1609
1620
2905
3533
3753
4886
4901
4902
4916
4925
4952
4958
[ 652 ]
449
504
516
523
524
581
592
805
827
1051
1060
1408
1617
1628
1716
1752
2629
2660
2702
2941
3000
3130
3554
3687
3720
3722
4129
4182
4183
4863
4883
4920
4930
4936
4964
[ 653 ]
411
448
454
513
558
669
774
821
842
847
850
852
1074
1122
1151
1277
1324
1362
1405
1449
1496
1633
1634
1661
1718
1720
2084
2867
2912
2948
2999
3148
3487
3491
3513
3514
3517
3528
3536
3553
3586
3588
3703
3711
3750
3762
3807
3809
3934
4180
4387
4836
4871
4912
4928
[ 654 ]
368
397
452
453
464
469
508
531
588
668
831
841
855
871
876
1153
1297
1320
1330
1354
1459
1477
1566
1592
1597
1611
1616
1635
1700
1715
2577
2595
2775
2878
2879
2894
2917
2940
2986
3410
3436
3445
3457
3458
3463
3468
3490
3585
3606
3637
3686
3712
3718
3729
3744
3793
3794
3806
3811
3855
3856
3901
3913
4142
4144
4149
4154
4692
4833
4885
4903
4931
4945
4951
4982
[ 655 ]
399
412
447
451
529
605
835
844
1136
1141
1145
1276
1279
1308
1366
1383
1401
1455
1456
1474
1478
1481
1484
1543
1624
1701
1721
1844
2086
2551
2598
2600
2625
2646
2758
2768
2779
2811
2863
2887
2893
2952
2953
2972
3135
3424
3448
3459
3520
3525
3530
3548
3549
3551
3603
3682
3684
3709
3832
3850
3860
3877
3885
3933
3979
3983
4005
4160
4177
4382
4515
4545
4687
4814
4834
4840
4851
4893
[ 656 ]
391
393
395
536
614
670
1328
1618
2083
2543
2576
2632
2778
2831
2857
2858
2888
2913
2926
2951
3010
3027
3064
3146
3179
3222
3420
3421
3443
3462
3485
3486
3501
3519
3526
3527
3552
3568
3584
3625
3631
3635
3636
3666
3743
3785
3849
3851
3852
3864
3866
3869
3870
3879
3905
3932
3939
3941
3960
4003
4117
4166
4175
4179
4462
4560
4613
4652
4827
4828
4837
4850
4890
4946
4948
4954
[ 657 ]
530
606
869
1280
1298
1311
1359
1425
1454
1457
1466
1479
1586
1797
2333
2400
2401
2540
2554
2640
2695
2697
2710
2712
2786
2808
2859
2869
2945
2947
3011
3019
3061
3088
3090
3127
3153
3205
3221
3239
3272
3409
3411
3415
3455
3456
3460
3461
3466
3472
3502
3504
3505
3510
3512
3550
3582
3587
3589
3601
3604
3626
3642
3697
3698
3705
3791
3818
3834
3862
3863
3888
3896
3925
3938
3969
3981
3985
4060
4070
4087
4098
4099
4136
4140
4143
4156
4158
4171
4178
4384
4412
4500
4695
4712
4826
4830
4849
[ 658 ]
517
966
1278
1317
1339
1402
1464
1619
1626
1859
1865
2405
2541
2542
2553
2599
2622
2643
2649
2667
2691
2747
2780
2788
2806
2923
2933
2942
3023
3068
3069
3070
3082
3092
3093
3124
3141
3184
3204
3245
3374
3387
3407
3438
3497
3506
3507
3594
3701
3708
3782
3797
3830
3872
3894
3897
3912
3921
3924
3928
3954
3956
3959
4061
4093
4096
4097
4159
4169
4386
4465
4505
4832
4953
[ 659 ]
900
1316
1349
1403
1794
2340
2353
2538
2549
2641
2645
2665
2744
2783
2918
2921
2930
3025
3045
3048
3067
3071
3120
3157
3220
3282
3389
3446
3473
3573
3602
3645
3721
3796
3825
3858
3865
3900
3910
3923
3945
3964
3988
4029
4031
4077
4130
4146
4151
4155
[ 660 ]
1560
2315
2410
2437
2573
2593
2662
2709
2745
2764
2800
2809
2892
2993
3015
3018
3021
3022
3046
3087
3131
3155
3165
3173
3212
3388
3390
3428
3439
3469
3480
3496
3524
3627
3646
3658
3702
3890
3892
3919
3944
4051
4057
4058
4416
[ 661 ]
1274
2441
2460
2468
2557
2566
2612
2644
2648
2794
2814
2886
2901
2969
3089
3091
3134
3162
3254
3408
3930
3952
3970
4062
[ 662 ]
2561
2608
2666
2717
2935
3054
3174
3336
3396
3699
3918
4035
4076
[ 663 ]
392
2415
2619
2636
2658
3224
[ 664 ]
3158
3198
3384
[ 665 ]
2442
2469
2610
2746
[ 667 ]
4024
[ 668 ]
2452
[ 678 ]
752
796
[ 679 ]
812
[ 680 ]
718
4132
[ 681 ]
554
572
708
787
861
2194
[ 682 ]
514
535
552
789
790
811
1135
1581
1607
3739
4887
4900
4927
[ 683 ]
515
721
791
834
840
877
878
1231
1307
1584
1613
2995
3152
3540
3752
3883
[ 684 ]
537
549
557
559
560
832
880
890
1113
1123
1563
1630
1631
1707
2927
2994
3534
3681
3715
4911
4917
4974
[ 685 ]
511
550
836
848
859
860
884
891
897
924
999
1021
1128
1134
1168
1173
1248
1250
1283
1565
1575
1614
1632
3145
3426
3539
3541
3565
3570
3580
3688
3706
3713
3732
3748
4949
[ 686 ]
455
512
546
838
870
895
896
995
1015
1023
1039
1052
1059
1069
1070
1140
1232
1281
1419
1422
1583
1585
1591
1604
2990
3002
3008
3026
3149
3150
3535
3537
3564
3579
3581
3634
3671
3680
3707
3736
3757
3802
3805
3837
3882
3886
3914
4083
4119
4145
4892
[ 687 ]
465
509
510
527
533
888
1124
1176
1247
1282
1287
1357
1367
1406
1577
1610
1625
2546
2552
2639
2790
2865
2997
3128
3423
3516
3518
3521
3529
3542
3547
3598
3608
3611
3629
3714
3804
3808
3853
3867
3884
4103
4120
4126
4128
4139
4163
4950
[ 688 ]
894
1045
1048
1143
1273
1288
1289
1358
1576
1579
1605
1612
1622
1719
2548
2613
2656
2777
2784
2875
2876
2916
2920
3007
3058
3072
3132
3136
3431
3437
3489
3523
3532
3562
3591
3599
3620
3641
3661
3664
3669
3696
3730
3751
3754
3759
3766
3798
3799
3816
3817
3823
3846
3847
3898
3903
3927
4095
4101
4104
4113
4153
4962
[ 689 ]
1152
1398
1480
1627
2547
2670
2889
2890
2919
3060
3125
3129
3144
3154
3422
3429
3492
3531
3546
3556
3560
3574
3595
3621
3644
3655
3660
3663
3677
3695
3728
3735
3737
3742
3745
3760
3824
3826
3828
3831
3835
3857
3878
3899
3911
3961
4064
4068
4110
4134
4138
4843
[ 690 ]
915
1313
1407
1424
1561
2345
2352
2638
2650
2694
2705
2706
2719
2874
2877
3013
3014
3030
3083
3142
3383
3425
3430
3435
3538
3558
3561
3597
3633
3640
3643
3648
3710
3747
3763
3790
3840
3842
3859
3861
3935
3957
3962
4089
4116
4137
4148
4150
4165
4541
[ 691 ]
1066
1461
2536
2539
2607
2617
2618
2663
2693
2698
2721
2944
3095
3107
3140
3156
3190
3419
3433
3450
3476
3522
3572
3619
3622
3630
3632
3726
3783
3787
3795
3909
3917
3922
3949
4037
4059
4066
4072
4122
4124
4131
4615
[ 692 ]
1299
1312
2414
2534
2556
2627
2668
2708
2713
2810
3035
3047
3081
3119
3123
3227
3381
3451
3479
3481
3567
3638
3639
3653
3659
3764
3781
3844
3873
3950
3963
4071
4073
4474
[ 693 ]
1476
2417
2669
2673
2707
2714
2718
2776
2861
3024
3036
3073
3079
3080
3192
3382
3392
3405
3406
3628
3650
3700
3741
3874
3942
4088
[ 694 ]
2344
2555
2614
2815
3033
3041
3044
3118
3385
3876
4038
4056
4074
4080
[ 695 ]
1556
2558
2565
2840
3114
3187
3199
3305
3412
3827
3974
4032
4033
[ 696 ]
1558
2715
3037
3391
4078
[ 697 ]
2440
3380
[ 698 ]
3077
[ 711 ]
795
[ 713 ]
556
[ 715 ]
555
793
794
1004
1024
1157
1204
1239
1241
1578
1608
1615
1623
2991
3003
3609
4133
[ 716 ]
545
553
899
986
1016
1137
1177
1244
1564
1582
[ 717 ]
542
547
792
837
879
887
892
901
907
910
916
928
997
1006
1038
1065
1133
1163
1170
1174
1186
1236
1240
1249
1257
1262
1708
3583
3592
3690
[ 718 ]
539
544
898
923
935
936
985
1088
1149
1164
1230
1252
2992
3004
3005
3610
3613
3685
3749
3758
3761
[ 719 ]
862
881
889
903
912
967
970
991
993
1008
1054
1058
1107
1126
1132
1144
1146
1148
1150
1154
1156
1159
1183
1184
1203
1235
1271
1562
3001
3545
3670
3723
3725
3727
3746
3814
3821
3838
4111
4114
4118
4125
4181
4898
[ 720 ]
950
974
989
1030
1055
1061
1063
1075
1087
1142
1147
1178
2674
3029
3147
3544
3563
3566
3593
3596
3656
3765
3767
3812
4102
[ 721 ]
902
955
968
977
981
988
1062
1180
1269
1275
1319
2616
2628
2671
2716
2787
3557
3569
3575
3600
3618
3649
3654
3665
3667
3672
3694
3756
3771
3803
3833
3951
4069
4162
[ 722 ]
1036
1220
1423
2312
2789
3106
3138
3427
3441
3442
3576
3607
3612
3616
3624
3647
3662
3674
3678
3692
3770
3775
3800
3822
3915
3948
3980
4105
4121
[ 723 ]
1121
1265
2550
2922
3032
3034
3112
3139
3432
3615
3623
3652
3668
3704
3772
3792
3839
3841
3907
3947
4075
4106
4112
[ 724 ]
2545
3031
3100
3133
3434
3559
3571
3617
3779
3829
3843
3848
4094
4109
4127
[ 725 ]
882
3028
3043
3094
3111
3113
3151
3577
3614
3673
3738
3780
3902
[ 726 ]
2813
3126
3379
[ 727 ]
2562
2615
3096
3402
[ 728 ]
3059
3062
3099
3395
3400
[ 729 ]
3042
[ 730 ]
3398
3404
[ 745 ]
540
[ 746 ]
543
927
[ 747 ]
541
548
921
922
929
996
1009
1171
1253
1258
[ 748 ]
920
992
1000
1001
1027
1050
1110
1115
1118
1234
1238
1242
1245
[ 749 ]
937
979
987
1005
1007
1034
1047
1076
1077
1097
1112
1131
1181
1195
1233
1246
1251
1256
1260
1261
3009
3515
[ 750 ]
874
906
917
918
961
965
984
994
998
1003
1018
1031
1073
1111
1116
1165
1196
1225
1227
1229
3006
[ 751 ]
538
919
926
932
943
951
959
962
971
976
1010
1019
1029
1037
1040
1064
1068
1078
1117
1155
1158
1160
1172
1189
1205
1223
1254
1263
3137
[ 752 ]
925
939
957
990
1014
1053
1084
1092
1093
1100
1104
1106
1108
1129
1187
1193
1206
1216
1217
2408
3590
3675
3689
3691
4100
[ 753 ]
893
913
914
947
954
964
972
1025
1057
1095
1096
1127
1255
1264
3012
3693
3776
3815
4108
4115
[ 754 ]
934
983
1022
1072
1089
1094
1101
1114
1119
1138
1210
2672
3731
3777
3836
[ 755 ]
1043
1179
1191
3143
3813
[ 756 ]
1268
3734
3768
3769
3819
3845
3854
4065
[ 757 ]
1318
3104
3393
[ 758 ]
3016
3038
3105
3108
3657
3773
3778
3820
[ 759 ]
3109
3115
3121
3122
[ 760 ]
3740
3881
[ 761 ]
3784
[ 762 ]
4067
[ 763 ]
3401
[ 766 ]
3394
[ 779 ]
1002
[ 780 ]
948
1011
1226
[ 781 ]
1017
1200
1212
1214
[ 782 ]
945
949
975
1012
1013
1042
1082
1103
1109
1175
1197
1202
1208
1213
[ 783 ]
905
953
956
958
973
1020
1049
1056
1090
1120
1130
1161
1167
1188
1215
1228
1237
1259
[ 784 ]
904
930
931
942
944
960
978
980
1026
1033
1041
1190
1224
3676
[ 785 ]
908
938
940
952
1046
1071
1083
1086
1162
1166
1182
1209
1219
3103
[ 786 ]
969
1067
1105
1139
1222
3679
3724
[ 787 ]
1091
1099
1102
1192
3733
[ 788 ]
963
1272
[ 789 ]
1266
3039
3555
3774
[ 790 ]
3786
4123
[ 791 ]
1221
[ 792 ]
3110
[ 793 ]
3040
3101
[ 794 ]
3098
[ 795 ]
3116
3651
[ 796 ]
3097
[ 799 ]
3403
[ 813 ]
946
1032
[ 814 ]
1169
[ 815 ]
1098
1198
1211
[ 816 ]
909
933
941
1199
[ 817 ]
911
1028
4107
[ 818 ]
982
1035
[ 819 ]
1218
1270
[ 820 ]
1044
1267
[ 821 ]
1081
[ 827 ]
3399
[ 828 ]
3397
[ 846 ]
1201
[ 849 ]
1207
[ 853 ]
1085
1194
[ 854 ]
3102
[ 855 ]
1079
[ 859 ]
3117
[ 1022 ]
1080
