[ 6 ]
1
[ 324 ]
3
[ 325 ]
15
17
27
[ 326 ]
19
20
[ 328 ]
21
26
[ 331 ]
22
[ 354 ]
2
[ 356 ]
14
[ 358 ]
11
12
23
[ 359 ]
24
25
[ 360 ]
31
[ 361 ]
28
29
32
[ 362 ]
34
[ 363 ]
33
[ 384 ]
6
[ 386 ]
7
[ 388 ]
5
[ 389 ]
8
[ 390 ]
13
[ 391 ]
146
[ 392 ]
18
[ 393 ]
36
81
[ 394 ]
80
229
[ 395 ]
35
38
39
57
[ 396 ]
41
42
82
191
[ 397 ]
48
63
130
[ 399 ]
45
47
[ 401 ]
43
[ 418 ]
4
[ 420 ]
10
[ 422 ]
152
156
[ 424 ]
51
148
157
[ 425 ]
30
49
83
131
183
200
222
[ 426 ]
89
155
180
181
262
[ 427 ]
112
113
115
151
153
158
177
179
221
251
258
260
[ 428 ]
40
134
257
[ 429 ]
77
111
132
196
263
269
[ 430 ]
64
78
124
194
[ 431 ]
73
[ 432 ]
46
[ 434 ]
65
[ 453 ]
16
[ 454 ]
154
[ 455 ]
189
[ 456 ]
143
149
161
186
261
[ 457 ]
74
87
90
95
150
220
[ 458 ]
79
86
94
140
178
182
187
201
224
275
[ 459 ]
66
72
85
88
110
133
185
198
204
225
230
250
[ 460 ]
37
93
125
135
172
190
192
195
218
219
223
226
234
242
268
276
[ 461 ]
50
53
121
123
136
159
197
228
248
256
267
[ 462 ]
58
62
69
118
120
126
233
239
259
265
[ 463 ]
122
227
254
291
[ 464 ]
61
84
114
119
264
[ 465 ]
91
209
236
249
255
266
[ 467 ]
238
[ 480 ]
9
[ 484 ]
144
147
[ 486 ]
208
[ 487 ]
278
[ 488 ]
68
141
[ 489 ]
139
145
167
169
175
184
[ 490 ]
71
142
203
205
[ 491 ]
116
231
244
252
253
277
284
[ 492 ]
76
109
137
176
245
271
272
[ 493 ]
54
55
59
75
212
213
217
240
246
270
274
295
[ 494 ]
117
193
211
241
293
[ 495 ]
44
52
128
202
232
235
237
243
[ 496 ]
56
214
292
[ 497 ]
127
290
297
[ 498 ]
60
294
320
[ 519 ]
166
168
[ 520 ]
96
188
[ 521 ]
99
129
138
170
171
207
[ 522 ]
98
162
165
173
199
279
[ 523 ]
281
[ 524 ]
92
108
174
216
283
[ 525 ]
70
103
206
282
313
[ 526 ]
67
285
310
[ 527 ]
210
289
[ 528 ]
215
247
[ 529 ]
298
[ 532 ]
316
[ 534 ]
318
[ 553 ]
160
[ 554 ]
104
[ 555 ]
1879
[ 556 ]
1878
1885
[ 557 ]
97
101
1871
1876
4974
[ 558 ]
100
107
273
296
312
1887
4985
[ 559 ]
280
287
1882
1884
[ 560 ]
102
4975
[ 561 ]
299
300
311
[ 564 ]
327
[ 567 ]
328
[ 584 ]
1854
1870
3306
[ 585 ]
106
3360
[ 586 ]
163
1865
1889
1890
3218
[ 587 ]
164
1875
[ 588 ]
288
314
1864
1891
1910
3304
[ 589 ]
597
604
1774
1849
1858
1874
1880
1883
[ 590 ]
1294
1775
1857
1877
1920
1951
3305
4991
[ 591 ]
286
582
1317
1851
1873
1881
1894
1897
2831
3271
4937
4973
[ 592 ]
306
315
317
321
469
600
1768
1785
1856
1862
3272
[ 593 ]
530
1319
1777
1782
[ 594 ]
326
1895
4569
4931
[ 595 ]
1359
1779
1786
4984
[ 596 ]
1863
[ 597 ]
484
523
[ 615 ]
3220
3229
[ 616 ]
3223
[ 617 ]
1868
1888
3224
3228
3280
[ 618 ]
1382
1797
1838
2388
3241
3325
3327
3334
3397
4562
[ 619 ]
1371
1867
1869
3219
3249
4986
[ 620 ]
105
585
605
1269
1289
1411
1415
1464
1788
1830
1837
1886
1902
1921
2829
3269
3336
3352
4806
4919
4933
4987
[ 621 ]
595
599
1268
1293
1342
1420
1427
1435
1543
1708
1731
1824
1828
2840
2851
2852
3231
3263
3267
3283
3296
3299
3312
3315
3359
3365
3713
4555
4558
4563
4785
4939
4968
4970
[ 622 ]
598
608
877
1014
1314
1316
1327
1337
1352
1356
1370
1418
1423
1710
1772
1773
1787
1798
1799
1815
1816
1827
1832
1850
1852
1859
1861
1866
1872
1899
1900
1901
1903
1915
2692
2836
2848
3214
3217
3230
3233
3239
3265
3266
3292
3293
3294
3301
3331
4038
4560
4564
4566
4572
4918
4920
4930
4954
[ 623 ]
309
485
567
611
1278
1292
1353
1362
1363
1367
1771
1790
1806
1807
1811
1821
1822
1825
1848
1892
1893
1908
1928
1930
2636
2822
2830
2838
3268
3275
3279
4039
4561
4593
4929
4934
4936
4941
4945
4988
4994
[ 624 ]
468
493
565
579
590
606
607
1299
1312
1313
1332
1343
1358
1361
1368
1421
1425
1436
1750
1769
1796
1801
1803
1810
1829
1853
1860
1898
1914
1919
1922
1923
1934
2494
2689
2841
2849
3209
3270
3274
3295
3408
4018
4556
4565
4922
4932
4947
4978
4990
4992
[ 625 ]
494
498
522
531
532
559
560
569
581
586
601
1419
1711
1770
1778
1780
1784
1805
1826
1855
1917
1918
1938
2161
2522
2651
4020
4086
4917
4944
4971
4981
4983
4989
[ 626 ]
445
453
486
488
524
1298
1301
1346
1783
1800
1896
1916
2854
3939
4093
4433
4972
[ 627 ]
491
527
1321
1360
1802
1804
2497
2823
2827
2850
2981
4952
4965
4979
4982
[ 628 ]
446
521
568
1132
1939
2141
2168
2867
3923
4082
4953
4957
[ 629 ]
319
444
1936
2226
3801
4976
[ 630 ]
324
330
492
1950
[ 631 ]
525
[ 632 ]
526
[ 647 ]
1378
[ 648 ]
1730
3369
3372
4577
[ 649 ]
1407
1842
3225
3226
3251
3303
3317
3323
3330
3357
3371
3377
3398
[ 650 ]
1383
1413
1434
1504
1656
1706
1737
1755
1762
1835
1836
2019
3222
3243
3281
3307
3349
3370
3374
3393
3396
3695
4483
4606
4658
4742
4916
[ 651 ]
602
1290
1329
1344
1376
1377
1389
1410
1454
1465
1471
1475
1523
1713
1716
1732
1754
1819
1839
1843
1904
2771
3215
3221
3236
3257
3262
3297
3298
3318
3320
3324
3332
3333
3354
3364
3373
3693
3710
4387
4571
4576
4605
4650
4781
4909
4914
[ 652 ]
1315
1331
1380
1398
1403
1412
1417
1426
1440
1451
1452
1553
1682
1712
1793
1906
1907
1925
2016
3245
3247
3260
3273
3302
3316
3326
3350
3353
3356
3361
3367
3375
3394
3636
4194
4196
4351
4436
4575
4653
4779
4940
[ 653 ]
548
553
646
738
802
1291
1295
1366
1381
1394
1414
1416
1429
1430
1455
1456
1457
1458
1459
1460
1468
1469
1477
1544
1644
1679
1705
1747
1789
1831
1841
1905
1911
1931
1995
1999
2017
2348
2557
2837
3023
3035
3082
3213
3232
3237
3240
3258
3261
3288
3290
3300
3308
3321
3322
3363
3409
3641
3702
4088
4356
4486
4552
4661
4666
4784
4856
4928
[ 654 ]
301
450
536
610
628
744
1280
1287
1328
1334
1375
1385
1437
1448
1463
1470
1474
1478
1501
1740
1756
1795
1817
1818
1820
1840
1909
1912
1913
2097
2258
2390
2510
2707
2843
2961
3020
3075
3079
3081
3235
3242
3250
3259
3276
3289
3366
3407
4078
4352
4442
4567
4574
4583
4601
4604
4646
4663
4935
4995
[ 655 ]
308
535
566
587
603
609
733
803
966
989
1157
1270
1274
1279
1300
1305
1320
1339
1432
1438
1441
1442
1446
1447
1449
1461
1462
1472
1499
1743
1760
1776
1932
2003
2173
2220
2256
2269
2364
2456
2482
2490
2507
2515
2539
2704
2708
2736
2817
2842
3012
3024
3026
3036
3085
3107
3244
3278
3286
3287
3335
3640
3845
4007
4138
4147
4199
4423
4489
4551
4554
4570
4584
4603
4927
4958
4962
4977
4993
[ 656 ]
332
573
588
594
596
612
627
757
883
1035
1281
1341
1345
1347
1424
1443
1453
1466
1467
1744
1758
1759
1781
1814
1929
1952
2006
2144
2147
2169
2171
2224
2257
2386
2387
2457
2474
2478
2489
2513
2529
2541
2550
2688
2706
2818
2853
2857
2912
3011
3025
3076
3077
3084
3285
3368
3542
3634
3799
4016
4213
4389
4559
4591
4594
4624
4665
4926
4963
[ 657 ]
447
487
517
647
797
987
1034
1131
1145
1156
1241
1275
1302
1304
1422
1545
1761
1791
1812
1823
1926
1993
2108
2125
2138
2146
2149
2157
2177
2236
2473
2531
2540
2553
2635
2721
2733
2734
2824
2839
2996
3072
3282
3355
3437
3969
4037
4043
4081
4102
4273
4364
4430
4592
4595
4808
4921
4923
4938
4950
4956
4961
4966
[ 658 ]
305
472
490
495
511
561
614
632
1296
1309
1318
1340
1351
1767
1927
2136
2140
2162
2167
2227
2228
2230
2241
2242
2261
2498
2511
2512
2518
2532
2652
2669
2705
2712
2716
2719
2732
2778
2821
2845
2856
2873
2968
2974
3005
3070
3559
3637
3800
3804
4009
4019
4044
4045
4091
4092
4097
4137
4157
4297
4388
4404
4672
4807
4925
4942
4948
4980
[ 659 ]
397
440
520
529
992
1019
1286
1325
1949
2106
2139
2148
2158
2160
2225
2255
2356
2545
2665
2667
2709
2724
2846
2877
2980
3500
3820
4013
4017
4059
4085
4095
4100
4270
4943
4955
4959
[ 660 ]
483
489
653
994
1129
1130
1284
1297
1355
2156
2221
2222
2229
2240
2245
2342
2501
2544
2666
2844
2855
2869
2876
2888
2953
3828
4042
4052
4089
4200
4267
4268
4553
4964
4967
[ 661 ]
394
414
1133
1277
1307
1308
1322
2101
2176
2310
2496
2728
2866
2874
2880
3921
3924
[ 662 ]
323
528
1349
1364
[ 664 ]
4269
[ 666 ]
2671
[ 678 ]
1660
1674
[ 679 ]
1593
1597
1625
1640
1670
1684
[ 680 ]
1409
1589
1592
1596
1618
1702
1752
3395
3399
3697
4391
4911
[ 681 ]
1509
1510
1528
1557
1588
1621
1631
1636
1671
1680
1688
1707
2020
3227
3313
3319
3376
3391
4507
4756
4759
4783
[ 682 ]
534
617
879
1330
1379
1388
1393
1396
1508
1519
1521
1525
1558
1568
1574
1632
1649
1655
1669
1685
1694
1704
1714
1717
1721
1723
1765
2011
3248
3341
3358
3392
3400
3666
4324
4499
4509
4521
4522
4527
4585
4729
4751
4780
4907
4913
[ 683 ]
545
625
639
753
1335
1386
1406
1408
1433
1476
1483
1485
1486
1492
1512
1514
1515
1520
1522
1530
1531
1542
1576
1585
1648
1653
1654
1657
1715
1728
1729
1733
1746
1753
2018
2022
2694
3067
3238
3252
3255
3256
3328
3362
3390
3401
3643
3709
4183
4399
4713
4728
4747
4774
4776
4777
[ 684 ]
533
543
622
629
641
648
735
791
958
1392
1395
1399
1473
1479
1480
1487
1489
1493
1502
1506
1518
1524
1555
1566
1567
1573
1583
1586
1667
1678
1696
1757
1794
1845
1924
2023
2353
2519
2723
2832
2924
2935
3037
3046
3071
3112
3277
3310
3346
3348
3351
3628
3638
3714
3955
4186
4197
4344
4492
4531
4599
4651
4654
4757
4769
4771
4772
4773
4782
4906
4908
[ 685 ]
551
577
584
592
638
676
725
751
787
847
878
1272
1282
1369
1405
1431
1445
1484
1498
1500
1536
1541
1565
1683
1690
1719
1764
2010
2026
2057
2087
2099
2102
2362
2373
2411
2435
2452
2523
2556
2811
2826
2847
2983
3065
3080
3094
3212
3216
3246
3264
3311
3329
3337
3344
3402
3436
3444
3448
3540
3645
3698
3700
3708
3740
3954
4077
4112
4178
4179
4193
4198
4272
4298
4357
4386
4437
4494
4498
4514
4573
4589
4602
4642
4730
4768
4786
4915
[ 686 ]
307
465
496
538
544
558
575
591
630
631
634
640
643
661
724
741
965
972
986
1007
1011
1036
1155
1326
1374
1387
1507
1532
1548
1549
1572
1577
1681
1691
1692
1720
1751
1766
1813
1834
1998
2002
2008
2009
2012
2013
2015
2145
2152
2191
2260
2298
2359
2360
2361
2363
2369
2376
2432
2468
2492
2509
2521
2525
2526
2538
2543
2585
2634
2690
2760
2835
2899
2998
3013
3033
3044
3049
3056
3066
3068
3069
3115
3339
3342
3454
3464
3545
3584
3642
3644
3671
3707
3716
3835
4002
4041
4060
4084
4126
4136
4148
4325
4363
4390
4435
4441
4568
4580
4607
4610
4664
4716
4720
4766
4789
4805
4809
[ 687 ]
396
451
467
537
562
621
635
636
679
731
746
800
841
871
1004
1037
1391
1439
1450
1587
1745
1749
1792
1933
1935
1992
1996
2123
2441
2481
2493
2506
2536
2549
2559
2575
2577
2725
2739
2814
2820
2828
2858
2903
2930
2952
2967
2984
2987
2988
3003
3006
3007
3021
3022
3032
3038
3054
3074
3104
3116
3210
3439
3447
3451
3513
3555
3646
3732
3733
3856
3945
4008
4103
4125
4135
4146
4158
4348
4382
4384
4385
4416
4421
4422
4431
4438
4439
4484
4557
4586
4587
4609
4611
4647
4648
4649
4662
4670
4810
[ 688 ]
470
539
540
546
555
563
564
570
574
620
626
652
654
657
677
717
728
752
756
759
788
848
990
991
1135
1171
1249
1306
1444
1739
2001
2107
2111
2135
2219
2251
2253
2309
2358
2437
2464
2475
2487
2502
2514
2517
2527
2533
2558
2560
2561
2574
2578
2579
2583
2621
2639
2648
2649
2668
2680
2737
2807
2816
2834
2902
2914
2950
2954
2955
2956
2979
2986
2990
2995
3004
3030
3039
3041
3042
3047
3093
3119
3120
3122
3208
3211
3234
3378
3379
3431
3442
3453
3557
3558
3618
3648
3701
3704
3798
3806
3839
3844
3941
4010
4065
4080
4098
4124
4301
4349
4350
4355
4485
4598
4608
4660
4775
4816
4817
4867
[ 689 ]
389
448
449
506
515
541
644
680
732
758
763
790
796
880
948
955
964
1006
1017
1020
1025
1027
1159
1311
1324
1348
1357
1741
1748
2053
2055
2098
2105
2114
2116
2206
2216
2307
2355
2357
2372
2440
2471
2472
2488
2503
2505
2524
2530
2554
2562
2573
2644
2654
2655
2658
2676
2685
2687
2691
2727
2738
2775
2781
2813
2897
2898
2907
2913
2971
2985
3073
3083
3087
3089
3099
3101
3103
3111
3118
3132
3161
3168
3193
3291
3381
3469
3556
3579
3630
3647
3711
3738
3840
3967
3994
4024
4046
4094
4141
4149
4150
4201
4262
4289
4326
4354
4418
4487
4488
4497
4597
4668
4669
4778
4969
5001
[ 690 ]
304
322
425
482
542
557
619
737
748
764
1273
1276
1333
1365
1373
1937
1997
2000
2052
2143
2165
2172
2174
2201
2223
2266
2345
2391
2415
2418
2460
2477
2479
2483
2546
2637
2643
2650
2664
2703
2710
2730
2777
2825
2900
2901
2910
2940
2944
2970
3015
3027
3058
3064
3095
3162
3512
3717
3817
3825
3827
3936
4101
4122
4129
4130
4294
4408
4424
4671
4673
4946
4951
[ 691 ]
354
556
793
794
872
971
993
1029
1147
1267
1288
1809
1844
1942
1943
1948
1991
1994
2054
2118
2124
2155
2159
2170
2209
2233
2235
2249
2262
2351
2438
2459
2534
2542
2548
2638
2641
2657
2663
2672
2711
2951
2963
2966
2973
2982
3088
3814
3830
3831
3833
3849
3932
4014
4054
4155
4271
4275
4396
4432
4596
[ 692 ]
336
430
455
497
593
651
655
786
885
980
1005
1354
1808
1847
2103
2104
2137
2142
2178
2231
2234
2252
2292
2343
2344
2439
2442
2476
2656
2659
2860
2875
2999
3091
3108
3826
3832
3834
3867
3922
3926
3927
4156
4287
4427
[ 693 ]
325
334
388
395
412
516
656
1134
1146
2163
2164
2215
2238
2254
2347
2653
2720
3815
4036
4295
[ 694 ]
333
1338
2239
2243
2244
2247
2271
2868
2881
2886
3818
3821
3866
3868
3938
4277
[ 695 ]
1310
2073
2248
2670
[ 696 ]
441
443
1283
2879
4288
[ 697 ]
431
[ 698 ]
329
[ 707 ]
1623
[ 709 ]
1619
[ 710 ]
1615
1624
[ 711 ]
1534
1599
1626
1661
1663
1668
1672
4525
4734
[ 712 ]
1529
1584
1600
1609
1629
1638
1641
1646
1686
1693
4504
4512
4743
[ 713 ]
1517
1526
1535
1556
1579
1580
1581
1594
1622
1627
1642
1650
1651
1673
1677
1687
1695
1698
2025
2762
3169
3253
3432
4655
4706
4736
4745
4754
4885
[ 714 ]
681
1481
1488
1575
1582
1590
1595
1598
1602
1637
1647
1658
1662
1701
1703
1718
1734
2812
3387
3620
4520
4526
4530
4613
4700
4708
4752
4912
[ 715 ]
462
659
683
688
691
742
1404
1482
1490
1496
1503
1533
1563
1605
1635
1664
1666
1675
1676
1689
1697
1736
2024
2027
2045
2389
2928
3016
3051
3142
3669
3674
3725
4177
4191
4281
4345
4452
4501
4511
4518
4524
4623
4641
4652
4659
4744
4746
4753
4787
4790
4791
4868
[ 716 ]
549
616
624
637
658
672
673
692
706
712
754
881
1141
1402
1494
1497
1505
1554
1562
1611
1652
1724
1727
1833
2094
2213
2429
2434
2451
2467
2594
2595
2602
2661
2702
2761
2765
2767
2819
2909
2960
3028
3050
3053
3078
3113
3191
3345
3427
3433
3465
3466
3591
3621
3623
3632
3670
3734
3953
4181
4182
4337
4376
4451
4482
4502
4517
4616
4622
4657
4702
4731
4767
4818
4858
4860
4865
4884
[ 717 ]
642
660
669
685
693
722
723
739
743
768
798
801
850
963
1003
1248
1390
1397
1428
1540
1559
1564
1578
1601
1604
2421
2491
2535
2615
2630
2633
2696
2729
2756
2791
2796
2921
2925
2934
2945
3045
3105
3130
3133
3137
3149
3171
3175
3179
3284
3309
3314
3405
3406
3521
3611
3619
3624
3633
3651
3661
3672
3696
3722
3726
3751
3841
3944
3966
4110
4117
4152
4163
4185
4192
4195
4221
4340
4343
4346
4365
4392
4393
4397
4409
4496
4510
4537
4544
4579
4627
4674
4684
4717
4758
4760
4763
4788
4802
4822
4859
4864
4999
5000
[ 718 ]
507
576
589
618
633
649
682
687
690
721
806
811
882
884
967
975
979
1002
1271
1491
1511
1547
1551
1552
1570
1571
1709
1735
1763
1940
2005
2014
2096
2279
2286
2319
2412
2419
2422
2447
2504
2563
2675
2701
2759
2769
2922
2923
2931
2949
2957
2972
2994
3014
3034
3106
3125
3131
3143
3155
3164
3167
3189
3192
3459
3460
3497
3501
3511
3515
3523
3524
3539
3541
3553
3599
3627
3629
3631
3635
3639
3673
3694
3728
3741
3749
3767
3846
3956
3963
3970
3992
3998
4070
4079
4132
4162
4257
4291
4320
4323
4335
4359
4361
4383
4400
4415
4434
4515
4547
4582
4612
4617
4667
4719
4723
4724
4749
4755
4762
4804
4820
4863
4866
4910
4996
[ 719 ]
452
471
473
474
510
514
552
578
580
720
750
792
799
863
876
1000
1028
1039
1138
1144
1181
1254
1265
1266
1350
1738
1984
2049
2061
2062
2150
2184
2188
2214
2264
2294
2341
2368
2374
2384
2416
2417
2420
2431
2448
2458
2470
2499
2516
2555
2566
2580
2582
2586
2611
2646
2714
2722
2770
2772
2806
2809
2815
2906
2911
2917
2946
2959
2962
2989
2993
3009
3029
3040
3055
3092
3121
3156
3157
3174
3206
3403
3410
3438
3455
3461
3463
3514
3516
3520
3543
3549
3581
3592
3649
3653
3682
3715
3723
3737
3843
3946
3948
4005
4025
4067
4071
4121
4161
4187
4188
4284
4290
4314
4333
4362
4372
4378
4394
4401
4420
4479
4491
4500
4516
4546
4548
4581
4621
4644
4645
4718
4770
4815
4830
4844
4861 # this
[ 720 ]
384
461
499
501
513
547
571
583
645
650
670
684
707
713
736
745
749
789
804
852
861
951
978
1022
1158
1192
1400
1401
1495
1742
1846
1957
1965
2051
2089
2109
2122
2154
2211
2268
2270
2293
2299
2320
2349
2352
2371
2377
2385
2400
2401
2404
2430
2433
2450
2461
2462
2463
2480
2484
2537
2547
2616
2631
2645
2682
2686
2743
2758
2768
2779
2782
2785
2810
2905
2915
2947
2969
2997
3008
3017
3043
3062
3086
3102
3114
3163
3198
3205
3383
3458
3499
3510
3546
3561
3600
3603
3664
3679
3706
3720
3805
3854
3861
3880
3947
3964
3993
4023
4049
4050
4051
4068
4087
4105
4128
4134
4160
4180
4208
4214
4278
4303
4347
4403
4410
4419
4540
4631
4643
4748
4803
4819
4960
[ 721 ]
352
399
456
466
502
512
572
613
696
698
718
727
729
761
976
984
1143
1285
1384
1537
1944
1953
1958
2004
2007
2050
2063
2088
2110
2112
2153
2196
2197
2202
2205
2208
2210
2259
2296
2340
2350
2370
2375
2382
2392
2399
2445
2453
2485
2500
2520
2612
2623
2693
2695
2697
2699
2780
2918
2965
2976
3010
3018
3019
3090
3117
3123
3135
3165
3170
3190
3200
3382
3446
3452
3467
3517
3522
3544
3580
3743
3808
3837
3838
3859
3894
3949
3995
4003
4004
4006
4057
4104
4109
4127
4144
4207
4266
4328
4395
4398
4620
4821
4829
4998
[ 722 ]
302
331
349
351
398
415
437
475
476
500
509
623
664
719
747
785
856
873
999
1024
1137
1149
1546
1947
2065
2121
2126
2175
2183
2198
2217
2218
2265
2284
2290
2346
2354
2397
2414
2449
2454
2495
2508
2640
2660
2677
2679
2735
2741
2742
2859
2884
2885
2889
2916
2937
2943
3063
3100
3109
3380
3434
3563
3617
3719
3836
3842
3850
3852
3855
3881
3917
3937
3940
3991
4012
4021
4053
4056
4133
4145
4153
4202
4211
4274
4296
4300
4310
4353
4366
4549
4590
4600
4656
4828
4924
[ 723 ]
303
417
429
477
479
662
726
864
985
988
995
1008
1040
1139
1240
1242
1255
1372
1960
1975
1989
2100
2117
2127
2133
2190
2200
2267
2287
2291
2311
2313
2336
2378
2403
2466
2528
2570
2681
2684
2717
2871
2896
2904
3031
3562
3652
3746
3802
3810
3812
3816
3829
3853
3878
3919
3935
3971
4040
4096
4099
4212
4265
4302
4308
4428
[ 724 ]
356
438
442
464
518
697
762
1023
2072
2182
2185
2193
2203
2204
2232
2318
2330
2552
2776
2808
2833
2861
2862
2864
2865
2895
3811
3925
3931
4011
4055
4090
4123
4131
4210
4276
4293
4299
4417
4425
4550
[ 725 ]
353
386
387
390
391
519
869
1126
1128
1977
2056
2067
2199
2237
2308
2333
2642
2883
2887
2938
2964
3098
3797
3864
3928
3930
4015
4154
4426
[ 726 ]
355
385
422
427
1162
1163
1303
2070
2074
2130
2134
2195
2246
2282
2321
2576
2882
3869
[ 727 ]
435
2069
2076
2323
2329
3000
3807
3871
3929
4139
[ 728 ]
1152
2324
[ 729 ]
2128
2166
[ 741 ]
4750
[ 742 ]
1699
[ 743 ]
826
1527
1620
1628
1633
1634
4683
[ 744 ]
1610
1617
1630
3622
4637
4710
4799
[ 745 ]
821
1513
1516
1591
1607
1614
1639
1645
1726
3435
4523
4638
4722
4733
4741
4798
4800
[ 746 ]
734
755
874
1560
1659
2039
2800
3254
3441
3534
3610
3959
4063
4166
4175
4505
4634
4635
4675
4694
4709
4726
4732
4735
4737
4739
4792
4795
4811
4889
4905
[ 747 ]
807
809
820
829
968
1561
1569
1603
1665
1722
1725
2021
2033
2436
2455
2606
2798
3048
3128
3144
3153
3388
3626
3905
4115
4341
4358
4413
4444
4448
4495
4508
4519
4533
4625
4636
4707
4740
4824
4883
[ 748 ]
463
550
689
715
716
740
760
765
817
822
825
849
860
888
962
981
1250
1643
2029
2410
2426
2486
2571
2591
2626
2632
2757
2764
2958
3138
3145
3172
3181
3338
3340
3347
3385
3411
3425
3457
3518
3613
3984
4062
4169
4171
4176
4190
4332
4367
4443
4513
4538
4615
4628
4698
4701
4712
4715
4738
[ 749 ]
663
714
766
778
842
853
960
974
1012
1050
1237
1323
1606
1985
1988
2048
2093
2365
2407
2423
2425
2551
2592
2619
2673
2740
2773
2774
2789
2801
3001
3059
3134
3136
3141
3148
3166
3525
3526
3528
3596
3612
3665
3735
3752
3759
3950
4048
4073
4074
4118
4165
4167
4168
4173
4243
4256
4369
4493
4506
4529
4539
4545
4639
4685
4692
4721
4761
4801
4823
4836
4848
4857
4862
[ 750 ]
457
554
671
695
704
769
770
771
815
816
840
843
851
855
942
950
1010
1154
1182
1550
2036
2092
2212
2295
2409
2584
2587
2597
2609
2744
2793
2794
2795
2919
2920
2926
2929
2992
3060
3061
3124
3127
3129
3139
3152
3154
3158
3173
3187
3188
3207
3343
3404
3443
3449
3468
3502
3519
3625
3676
3690
3727
3739
3750
3758
3896
3906
3952
4032
4069
4108
4111
4116
4184
4189
4205
4282
4377
4381
4402
4450
4535
4541
4680
4697
4813
4826
4851
4886
[ 751 ]
365
400
436
481
615
675
678
694
699
782
783
795
810
812
823
865
875
889
893
977
997
1013
1038
1045
1150
1539
1955
2028
2047
2058
2095
2151
2300
2317
2366
2367
2379
2402
2405
2413
2465
2572
2603
2608
2613
2617
2624
2625
2628
2698
2718
2726
2763
2788
2797
2803
2932
2933
3002
3052
3140
3147
3150
3160
3199
3430
3450
3492
3538
3550
3551
3582
3589
3662
3677
3692
3742
3753
3755
3756
3770
3886
3895
3943
4001
4061
4075
4113
4151
4164
4203
4220
4237
4249
4264
4285
4334
4338
4374
4414
4490
4578
4618
4626
4630
4640
4676
4677
4681
4714
4725
[ 752 ]
411
419
439
458
503
805
945
969
982
1001
1026
1033
1044
1236
1247
1251
1261
1264
2273
2301
2306
2322
2383
2428
2444
2469
2581
2604
2614
2620
2662
2674
2678
2683
2713
2715
2792
2941
2942
2977
2978
2991
3110
3159
3440
3456
3493
3548
3560
3615
3681
3712
3757
3848
3882
3912
3958
4029
4066
4106
4119
4159
4255
4259
4260
4283
4292
4315
4319
4339
4342
4370
4447
4543
4588
4619
4678
4703
4765
4834
4845
4949
[ 753 ]
350
359
416
428
508
702
868
949
953
956
973
983
1015
1021
1114
1142
1941
1954
1959
1967
1974
1980
1981
2046
2066
2115
2119
2120
2181
2192
2274
2276
2285
2302
2334
2337
2339
2380
2393
2395
2408
2446
2565
2567
2590
2783
2790
2936
2948
3202
3203
3413
3423
3445
3494
3552
3598
3654
3680
3686
3687
3718
3730
3847
3883
3893
3918
3951
3987
3990
4035
4047
4120
4204
4215
4219
4280
4313
4405
4406
4407
4440
4764
4827
[ 754 ]
357
363
665
703
947
1031
1160
1204
1260
1538
1978
1990
2085
2086
2091
2113
2179
2194
2303
2424
2443
2610
2745
2784
2975
3057
3496
3607
3703
3857
3860
3892
3910
3913
3916
3920
3942
3968
4258
4263
4307
4309
4329
4360
4371
4411
4412
4997
[ 755 ]
423
454
460
505
666
730
845
891
1136
1199
1245
1983
2068
2207
2275
2283
2288
2394
2398
2731
3096
3509
3572
3586
3663
3699
3793
3822
3824
3851
3862
3863
3879
3915
4022
4083
4143
4209
4216
4254
4279
4305
4311
4312
4322
4327
[ 756 ]
361
370
418
668
784
1178
1336
2059
2060
2180
2250
2297
2312
2325
2381
2647
2863
2870
2939
3508
3585
3729
3819
4253
4286
[ 757 ]
424
1148
1956
2077
2131
2263
2281
2332
3795
3813
3858
3872
3933
4058
4140
4304
[ 758 ]
1127
1972
1973
2071
2081
2305
2326
2872
3803
[ 759 ]
371
393
1976
2272
2289
2328
3790
[ 760 ]
421
2331
3934
[ 761 ]
1945
[ 763 ]
2327
[ 767 ]
2878
[ 774 ]
1613
1616
4705
[ 775 ]
4503
[ 776 ]
3386
3897
4445
4888
[ 777 ]
938
3182
3428
4072
4458
4691
4793
4850
4873
4879
[ 778 ]
927
1612
3183
3530
4449
4459
4696
4797
4825
4842
4876
[ 779 ]
478
781
808
827
926
928
1018
1608
2593
2750
3180
3533
3593
3901
3981
4031
4456
4881
[ 780 ]
819
866
957
1016
2030
2038
2598
2629
2908
3176
3389
3416
3537
3731
3785
3898
3908
3974
4107
4206
4379
4455
4632
4633
4682
4812
4855
4877
4903
[ 781 ]
705
711
813
814
824
859
1030
2032
2599
2601
2755
2766
2804
3126
3177
3384
3417
3505
3506
3507
3529
3547
3609
3616
3668
3979
3999
4026
4241
4318
4336
4528
4614
4679
4833
4853
[ 782 ]
402
701
846
857
936
952
954
970
1234
1962
1986
1987
2035
2064
2622
2754
2786
2927
3196
3421
3422
3490
3498
3503
3527
3535
3571
3675
3885
3887
3904
3909
3980
3983
4030
4076
4170
4228
4238
4464
4534
4629
4695
4814
4831
4835
4847
4849
[ 783 ]
344
404
459
686
818
900
959
998
1043
1238
1239
1243
2277
2605
2746
2747
3419
3462
3474
3479
3480
3489
3495
3588
3667
3678
3684
3888
3962
3965
3982
3985
3988
4240
4317
4331
4373
4542
4832
4841
4846
4854
[ 784 ]
674
844
862
867
887
899
1009
1051
1177
1179
1185
1201
1206
1252
1979
2090
2132
2569
2752
3146
3151
3204
3470
3475
3477
3504
3574
3577
3583
3595
3597
3604
3683
3685
3688
3689
3691
3747
3754
3762
3766
3776
3874
3884
3899
4064
4114
4142
4218
4242
4244
4245
4316
4375
4477
4727
[ 785 ]
362
406
700
996
1067
1168
1198
1200
1205
1244
1246
1961
1982
2278
2316
2338
2427
2564
2588
2618
2805
3194
3429
3491
3536
3554
3565
3605
3900
3911
4000
4174
4217
4231
4236
4887
[ 786 ]
358
360
367
368
380
403
480
898
915
1042
1055
1119
1140
1180
1221
1964
2314
2315
2335
3573
3724
3786
3823
3876
3986
3996
4246
4248
4261
4321
[ 787 ]
372
381
420
774
870
886
894
943
1032
1047
1161
1174
1186
1963
2083
2129
2189
2304
2396
2406
2589
2700
2748
3587
3606
3721
3736
3794
3890
3914
4306
4330
4536
[ 788 ]
338
405
1041
1187
1195
1969
2280
2568
3097
3865
3873
3891
[ 789 ]
339
392
434
892
1173
1189
1262
1946
2075
3870
[ 790 ]
335
337
364
1111
1184
2080
2186
3578
3787
3877
[ 791 ]
432
1258
3789
3792
3809
[ 792 ]
341
347
348
426
667
1188
1256
2082
[ 793 ]
2891
4429
[ 794 ]
1257
2890
[ 795 ]
2893
2894
[ 798 ]
2892
[ 807 ]
833
1209
1700
4699
[ 808 ]
4687
4875
[ 809 ]
834
3532
3907
4796
4891
[ 810 ]
828
838
3601
4453
4837
4872
[ 811 ]
2596
2627
3185
3902
3975
3978
4446
4532
4686
4688
4711
4852
4882
4893
[ 812 ]
708
767
776
831
1095
1207
1208
2044
3178
3184
3186
3424
3772
3903
4033
4233
4693
4869
4870
4899
4904
[ 813 ]
777
832
895
896
932
1049
1054
2607
2753
3531
3660
3768
3775
3973
4224
4227
4457
4460
4478
4840
4871
[ 814 ]
910
931
1048
1118
3420
3602
3760
3777
4028
4034
4234
4380
4461
4843
[ 815 ]
710
830
854
858
944
1064
1193
2751
2802
3415
3472
3473
3476
3485
3566
3657
3748
3889
3957
3961
3972
4250
4480
4839
[ 816 ]
709
897
961
1183
1235
2787
3195
3568
3705
3761
3763
4027
4232
4252
[ 817 ]
383
409
772
773
913
946
1169
1202
1223
2040
3594
3774
3783
3796
3989
3997
4247
4368
4481
[ 818 ]
342
343
504
890
916
1046
1052
1060
1085
1100
1151
1153
1167
1170
1203
1224
1970
1971
3483
3484
3564
3570
3608
3745
3771
[ 819 ]
345
366
369
433
911
1058
1059
1116
1220
1259
2084
2187
3201
3471
3655
3875
[ 820 ]
408
912
1057
1062
1968
2079
3650
3656
[ 821 ]
413
1056
1966
3576
3784
[ 822 ]
1110
2078
[ 823 ]
373
1222
[ 837 ]
4704
[ 838 ]
4895
[ 839 ]
837
4878
4880
4902
[ 841 ]
835
3426
[ 842 ]
905
1210
3614
4690
4794
4901
[ 843 ]
836
839
925
2749
3658
3976
4890
4898
[ 844 ]
775
919
930
939
2037
4172
4475
4892
4900
[ 845 ]
779
780
929
933
937
940
1121
1253
3481
3659
4222
4223
4226
[ 846 ]
901
917
924
2799
3569
3960
4229
4239
4251
4476
4896
[ 847 ]
914
1125
2600
3412
3486
3590
3781
4230
[ 848 ]
374
1194
1226
1233
2031
3414
3744
3765
3977
4462
4474
[ 849 ]
377
379
941
1086
1196
1231
3197
3418
3782
4235
[ 850 ]
375
401
407
907
1175
3779
3780
[ 851 ]
1061
1063
1082
1093
1096
1098
1115
1120
1219
2034
3567
3769
3791
[ 852 ]
1099
1191
3478
[ 853 ]
376
1113
1172
1190
3773
[ 854 ]
346
1112
1164
3788
[ 855 ]
340
3575
[ 856 ]
1263
[ 858 ]
382
[ 871 ]
4874
[ 872 ]
4689
[ 873 ]
904
4894
[ 875 ]
902
1211
4466
[ 876 ]
903
920
1084
4469
4471
[ 877 ]
935
3778
4454
4470
[ 878 ]
923
1083
3764
4473
[ 879 ]
934
1165
3488
4225
4465
[ 880 ]
908
918
1075
1109
1166
1197
[ 881 ]
1065
1068
1070
1106
1124
3487
4472
[ 882 ]
1077
1079
1090
1091
1122
[ 883 ]
410
1229
1232
[ 884 ]
1053
1104
1105
1107
1108
1123
[ 885 ]
1102
[ 886 ]
1080
2043
[ 887 ]
378
1228
[ 888 ]
2042
[ 906 ]
4897
[ 907 ]
4468
[ 908 ]
922
[ 909 ]
1071
[ 910 ]
1213
4838
[ 911 ]
1072
[ 912 ]
906
1076
1089
[ 913 ]
1101
1176
3482
[ 914 ]
1066
1069
1078
[ 915 ]
1087
1097
1217
4463
[ 917 ]
1094
1227
[ 918 ]
1230
[ 919 ]
1103
[ 920 ]
2041
[ 939 ]
4467
[ 941 ]
921
[ 942 ]
909
[ 943 ]
1073
1212
[ 945 ]
1092
[ 949 ]
1218
1225
[ 973 ]
1088
[ 975 ]
1214
1215
[ 977 ]
1216
[ 978 ]
1074
1081
[ 1013 ]
1117
