;;
;; Generated by CHARMM-GUI FF-Converter
;;
;; Correspondance:
;; jul316@lehigh.edu or wonpil@lehigh.edu
;;
;; GROMACS topology file for LIG
;;


[ moleculetype ]
; name	nrexcl
LIG	     3

[ atoms ]
; nr	type	resnr	residu	atom	cgnr	charge	mass
     1      CG321      0      LIG     C1      1    -0.264000    12.0110   ; qtot -0.264
     2      CG311      0      LIG     C2      2     0.140000    12.0110   ; qtot -0.124
     3      CG321      0      LIG     C3      3    -0.231000    12.0110   ; qtot -0.355
     4     CG3RC1      0      LIG     C4      4    -0.016000    12.0110   ; qtot -0.371
     5     CG3RC1      0      LIG     C5      5     0.352000    12.0110   ; qtot -0.019
     6      CG311      0      LIG     C6      6     0.145000    12.0110   ; qtot  0.126
     7     OG3C51      0      LIG     O1      7    -0.405000    15.9994   ; qtot -0.279
     8     CG3C50      0      LIG     C7      8     0.343000    12.0110   ; qtot  0.064
     9     CG3C51      0      LIG     C8      9     0.128000    12.0110   ; qtot  0.192
    10     OG3C61      0      LIG     O2     10    -0.401000    15.9994   ; qtot -0.209
    11      CG321      0      LIG     C9     11     0.039000    12.0110   ; qtot -0.170
    12      CG311      0      LIG    C10     12    -0.080000    12.0110   ; qtot -0.250
    13      CG321      0      LIG    C11     13    -0.163000    12.0110   ; qtot -0.413
    14      CG311      0      LIG    C12     14     0.144000    12.0110   ; qtot -0.269
    15      OG311      0      LIG     O3     15    -0.649000    15.9994   ; qtot -0.918
    16      OG311      0      LIG     O4     16    -0.647000    15.9994   ; qtot -1.565
    17      OG311      0      LIG     O5     17    -0.650000    15.9994   ; qtot -2.215
    18      CG331      0      LIG    C13     18    -0.276000    12.0110   ; qtot -2.491
    19      OG302      0      LIG     O6     19    -0.291000    15.9994   ; qtot -2.782
    20      CG2O2      0      LIG    C14     20     0.459000    12.0110   ; qtot -2.323
    21      OG2D1      0      LIG     O7     21    -0.496000    15.9994   ; qtot -2.819
    22     CG2R61      0      LIG    C15     22     0.086000    12.0110   ; qtot -2.733
    23     CG2R61      0      LIG    C16     23    -0.109000    12.0110   ; qtot -2.842
    24     CG2R61      0      LIG    C17     24    -0.112000    12.0110   ; qtot -2.954
    25     CG2R61      0      LIG    C18     25     0.107000    12.0110   ; qtot -2.847
    26      OG311      0      LIG     O8     26    -0.533000    15.9994   ; qtot -3.380
    27     CG2R61      0      LIG    C19     27    -0.112000    12.0110   ; qtot -3.492
    28     CG2R61      0      LIG    C20     28    -0.109000    12.0110   ; qtot -3.601
    29      CG2O1      0      LIG    C21     29     0.532000    12.0110   ; qtot -3.069
    30      NG2S1      0      LIG      N     30    -0.520000    14.0070   ; qtot -3.589
    31      OG2D1      0      LIG     O9     31    -0.523000    15.9994   ; qtot -4.112
    32      CG321      0      LIG    C22     32    -0.039000    12.0110   ; qtot -4.151
    33      CG321      0      LIG    C23     33    -0.185000    12.0110   ; qtot -4.336
    34      CG321      0      LIG    C24     34    -0.183000    12.0110   ; qtot -4.519
    35      CG321      0      LIG    C25     35    -0.177000    12.0110   ; qtot -4.696
    36      CG331      0      LIG    C26     36    -0.273000    12.0110   ; qtot -4.969
    37       HGA2      0      LIG     H1     37     0.090000     1.0080   ; qtot -4.879
    38       HGA2      0      LIG     H2     38     0.090000     1.0080   ; qtot -4.789
    39       HGA1      0      LIG     H3     39     0.090000     1.0080   ; qtot -4.699
    40       HGA2      0      LIG     H4     40     0.090000     1.0080   ; qtot -4.609
    41       HGA2      0      LIG     H5     41     0.090000     1.0080   ; qtot -4.519
    42       HGA1      0      LIG     H6     42     0.090000     1.0080   ; qtot -4.429
    43       HGA1      0      LIG     H7     43     0.090000     1.0080   ; qtot -4.339
    44       HGA1      0      LIG     H8     44     0.090000     1.0080   ; qtot -4.249
    45       HGA2      0      LIG     H9     45     0.090000     1.0080   ; qtot -4.159
    46       HGA2      0      LIG    H10     46     0.090000     1.0080   ; qtot -4.069
    47       HGA1      0      LIG    H11     47     0.090000     1.0080   ; qtot -3.979
    48       HGA2      0      LIG    H12     48     0.090000     1.0080   ; qtot -3.889
    49       HGA2      0      LIG    H13     49     0.090000     1.0080   ; qtot -3.799
    50       HGA1      0      LIG    H14     50     0.090000     1.0080   ; qtot -3.709
    51       HGP1      0      LIG    H15     51     0.420000     1.0080   ; qtot -3.289
    52       HGP1      0      LIG    H16     52     0.420000     1.0080   ; qtot -2.869
    53       HGP1      0      LIG    H17     53     0.420000     1.0080   ; qtot -2.449
    54       HGA3      0      LIG    H18     54     0.090000     1.0080   ; qtot -2.359
    55       HGA3      0      LIG    H19     55     0.090000     1.0080   ; qtot -2.269
    56       HGA3      0      LIG    H20     56     0.090000     1.0080   ; qtot -2.179
    57      HGR61      0      LIG    H21     57     0.115000     1.0080   ; qtot -2.064
    58      HGR61      0      LIG    H22     58     0.115000     1.0080   ; qtot -1.949
    59       HGP1      0      LIG    H23     59     0.420000     1.0080   ; qtot -1.529
    60      HGR61      0      LIG    H24     60     0.115000     1.0080   ; qtot -1.414
    61      HGR61      0      LIG    H25     61     0.115000     1.0080   ; qtot -1.299
    62       HGP1      0      LIG    H26     62     0.309000     1.0080   ; qtot -0.990
    63       HGA2      0      LIG    H27     63     0.090000     1.0080   ; qtot -0.900
    64       HGA2      0      LIG    H28     64     0.090000     1.0080   ; qtot -0.810
    65       HGA2      0      LIG    H29     65     0.090000     1.0080   ; qtot -0.720
    66       HGA2      0      LIG    H30     66     0.090000     1.0080   ; qtot -0.630
    67       HGA2      0      LIG    H31     67     0.090000     1.0080   ; qtot -0.540
    68       HGA2      0      LIG    H32     68     0.090000     1.0080   ; qtot -0.450
    69       HGA2      0      LIG    H33     69     0.090000     1.0080   ; qtot -0.360
    70       HGA2      0      LIG    H34     70     0.090000     1.0080   ; qtot -0.270
    71       HGA3      0      LIG    H35     71     0.090000     1.0080   ; qtot -0.180
    72       HGA3      0      LIG    H36     72     0.090000     1.0080   ; qtot -0.090
    73       HGA3      0      LIG    H37     73     0.090000     1.0080   ; qtot -0.000

[ bonds ]
; ai	aj	funct	b0	Kb
    2     1     1
    6     1     1
    1    37     1
    1    38     1
    3     2     1
    2    29     1
    2    39     1
    4     3     1
    3    40     1
    3    41     1
    4     5     1
    7     4     1
    4    42     1
    5     6     1
    9     5     1
    5    16     1
   15     6     1
    6    43     1
    8     7     1
    8     9     1
   10     8     1
   13     8     1
   17     9     1
    9    44     1
   11    10     1
   12    11     1
   11    45     1
   11    46     1
   12    14     1
   18    12     1
   12    47     1
   14    13     1
   13    48     1
   13    49     1
   14    19     1
   14    50     1
   15    51     1
   16    52     1
   17    53     1
   18    54     1
   18    55     1
   18    56     1
   20    19     1
   21    20     1
   22    20     1
   22    23     1
   28    22     1
   24    23     1
   23    57     1
   25    24     1
   24    58     1
   26    25     1
   27    25     1
   26    59     1
   27    28     1
   27    60     1
   28    61     1
   29    30     1
   29    31     1
   32    30     1
   30    62     1
   32    33     1
   32    63     1
   32    64     1
   33    34     1
   33    65     1
   33    66     1
   35    34     1
   34    67     1
   34    68     1
   35    36     1
   35    69     1
   35    70     1
   36    71     1
   36    72     1
   36    73     1

[ pairs ]
; ai	aj	funct	c6	c12 or
; ai	aj	funct	fudgeQQ	q1	q2	c6	c12
    1     4     1
    1     9     1
    1    16     1
    1    30     1
    1    31     1
    1    40     1
    1    41     1
    1    51     1
    2     5     1
    2     7     1
    2    15     1
    2    32     1
    2    42     1
    2    43     1
    2    62     1
    3     6     1
    3     8     1
    3     9     1
    3    16     1
    3    30     1
    3    31     1
    3    37     1
    3    38     1
    4    10     1
    4    13     1
    4    15     1
    4    17     1
    4    29     1
    4    39     1
    4    43     1
    4    44     1
    4    52     1
    5    10     1
    5    13     1
    5    37     1
    5    38     1
    5    40     1
    5    41     1
    5    51     1
    5    53     1
    6     7     1
    6     8     1
    6    17     1
    6    29     1
    6    39     1
    6    42     1
    6    44     1
    6    52     1
    7    11     1
    7    14     1
    7    16     1
    7    17     1
    7    40     1
    7    41     1
    7    44     1
    7    48     1
    7    49     1
    8    12     1
    8    16     1
    8    19     1
    8    42     1
    8    45     1
    8    46     1
    8    50     1
    8    53     1
    9    11     1
    9    14     1
    9    15     1
    9    42     1
    9    43     1
    9    48     1
    9    49     1
    9    52     1
   10    14     1
   10    17     1
   10    18     1
   10    44     1
   10    47     1
   10    48     1
   10    49     1
   11    13     1
   11    19     1
   11    50     1
   11    54     1
   11    55     1
   11    56     1
   12    20     1
   12    48     1
   12    49     1
   13    17     1
   13    18     1
   13    20     1
   13    44     1
   13    47     1
   14    21     1
   14    22     1
   14    45     1
   14    46     1
   14    54     1
   14    55     1
   14    56     1
   15    16     1
   15    37     1
   15    38     1
   16    17     1
   16    42     1
   16    43     1
   16    44     1
   18    19     1
   18    45     1
   18    46     1
   18    50     1
   19    23     1
   19    28     1
   19    47     1
   19    48     1
   19    49     1
   20    24     1
   20    27     1
   20    50     1
   20    57     1
   20    61     1
   21    23     1
   21    28     1
   22    25     1
   22    58     1
   22    60     1
   23    26     1
   23    27     1
   23    61     1
   24    28     1
   24    59     1
   24    60     1
   25    57     1
   25    61     1
   26    28     1
   26    58     1
   26    60     1
   27    58     1
   27    59     1
   28    57     1
   29    33     1
   29    37     1
   29    38     1
   29    40     1
   29    41     1
   29    63     1
   29    64     1
   30    34     1
   30    39     1
   30    65     1
   30    66     1
   31    32     1
   31    39     1
   31    62     1
   32    35     1
   32    67     1
   32    68     1
   33    36     1
   33    62     1
   33    69     1
   33    70     1
   34    63     1
   34    64     1
   34    71     1
   34    72     1
   34    73     1
   35    65     1
   35    66     1
   36    67     1
   36    68     1
   37    39     1
   37    43     1
   38    39     1
   38    43     1
   39    40     1
   39    41     1
   40    42     1
   41    42     1
   43    51     1
   44    53     1
   45    47     1
   46    47     1
   47    50     1
   47    54     1
   47    55     1
   47    56     1
   48    50     1
   49    50     1
   57    58     1
   60    61     1
   62    63     1
   62    64     1
   63    65     1
   63    66     1
   64    65     1
   64    66     1
   65    67     1
   65    68     1
   66    67     1
   66    68     1
   67    69     1
   67    70     1
   68    69     1
   68    70     1
   69    71     1
   69    72     1
   69    73     1
   70    71     1
   70    72     1
   70    73     1

[ angles ] 
; ai	aj	ak	funct	th0	cth	S0	Kub
    2     1     6     5
    2     1    37     5
    2     1    38     5
    6     1    37     5
    6     1    38     5
   37     1    38     5
    1     2     3     5
    1     2    29     5
    1     2    39     5
    3     2    29     5
    3     2    39     5
   29     2    39     5
    2     3     4     5
    2     3    40     5
    2     3    41     5
    4     3    40     5
    4     3    41     5
   40     3    41     5
    3     4     5     5
    3     4     7     5
    3     4    42     5
    5     4     7     5
    5     4    42     5
    7     4    42     5
    4     5     6     5
    4     5     9     5
    4     5    16     5
    6     5     9     5
    6     5    16     5
    9     5    16     5
    1     6     5     5
    1     6    15     5
    1     6    43     5
    5     6    15     5
    5     6    43     5
   15     6    43     5
    4     7     8     5
    7     8     9     5
    7     8    10     5
    7     8    13     5
    9     8    10     5
    9     8    13     5
   10     8    13     5
    5     9     8     5
    5     9    17     5
    5     9    44     5
    8     9    17     5
    8     9    44     5
   17     9    44     5
    8    10    11     5
   10    11    12     5
   10    11    45     5
   10    11    46     5
   12    11    45     5
   12    11    46     5
   45    11    46     5
   11    12    14     5
   11    12    18     5
   11    12    47     5
   14    12    18     5
   14    12    47     5
   18    12    47     5
    8    13    14     5
    8    13    48     5
    8    13    49     5
   14    13    48     5
   14    13    49     5
   48    13    49     5
   12    14    13     5
   12    14    19     5
   12    14    50     5
   13    14    19     5
   13    14    50     5
   19    14    50     5
    6    15    51     5
    5    16    52     5
    9    17    53     5
   12    18    54     5
   12    18    55     5
   12    18    56     5
   54    18    55     5
   54    18    56     5
   55    18    56     5
   14    19    20     5
   19    20    21     5
   19    20    22     5
   21    20    22     5
   20    22    23     5
   20    22    28     5
   23    22    28     5
   22    23    24     5
   22    23    57     5
   24    23    57     5
   23    24    25     5
   23    24    58     5
   25    24    58     5
   24    25    26     5
   24    25    27     5
   26    25    27     5
   25    26    59     5
   25    27    28     5
   25    27    60     5
   28    27    60     5
   22    28    27     5
   22    28    61     5
   27    28    61     5
    2    29    30     5
    2    29    31     5
   30    29    31     5
   29    30    32     5
   29    30    62     5
   32    30    62     5
   30    32    33     5
   30    32    63     5
   30    32    64     5
   33    32    63     5
   33    32    64     5
   63    32    64     5
   32    33    34     5
   32    33    65     5
   32    33    66     5
   34    33    65     5
   34    33    66     5
   65    33    66     5
   33    34    35     5
   33    34    67     5
   33    34    68     5
   35    34    67     5
   35    34    68     5
   67    34    68     5
   34    35    36     5
   34    35    69     5
   34    35    70     5
   36    35    69     5
   36    35    70     5
   69    35    70     5
   35    36    71     5
   35    36    72     5
   35    36    73     5
   71    36    72     5
   71    36    73     5
   72    36    73     5

[ dihedrals ]
; ai	aj	ak	al	funct	phi0	cp	mult
    6     1     2    29     9
    6     1     2    39     9
   37     1     2    39     9
   38     1     2    39     9
    2     1     6     5     9
    2     1     6    15     9
    2     1     6    43     9
   37     1     6    43     9
   38     1     6    43     9
    3     2     1     6     9
    3     2     1    37     9
    3     2     1    38     9
   29     2     1    37     9
   29     2     1    38     9
    1     2     3     4     9
    1     2     3    40     9
    1     2     3    41     9
   29     2     3    40     9
   29     2     3    41     9
   39     2     3    40     9
   39     2     3    41     9
    1     2    29    30     9
    1     2    29    31     9
    3     2    29    30     9
    3     2    29    31     9
    4     3     2    29     9
    4     3     2    39     9
    2     3     4     5     9
    2     3     4     7     9
    2     3     4    42     9
   40     3     4    42     9
   41     3     4    42     9
    5     4     3    40     9
    5     4     3    41     9
    7     4     3    40     9
    7     4     3    41     9
    3     4     5     6     9
    3     4     5     9     9
    3     4     5    16     9
    7     4     5     9     9
    7     4     5    16     9
    3     4     7     8     9
    5     4     7     8     9
    6     5     4     7     9
    6     5     4    42     9
    9     5     4    42     9
   16     5     4    42     9
    4     5     6    15     9
    4     5     6    43     9
    9     5     6    15     9
    9     5     6    43     9
   16     5     6    43     9
    4     5     9     8     9
    4     5     9    17     9
    4     5     9    44     9
    6     5     9     8     9
    6     5     9    17     9
    6     5     9    44     9
   16     5     9    17     9
   16     5     9    44     9
    4     5    16    52     9
    6     5    16    52     9
    9     5    16    52     9
    5     6     1    37     9
    5     6     1    38     9
   15     6     1    37     9
   15     6     1    38     9
    1     6     5     4     9
    1     6     5     9     9
    1     6     5    16     9
   15     6     5    16     9
    1     6    15    51     9
    5     6    15    51     9
   43     6    15    51     9
    8     7     4    42     9
    4     7     8     9     9
    4     7     8    10     9
    4     7     8    13     9
    7     8     9    17     9
    7     8     9    44     9
   10     8     9    17     9
   10     8     9    44     9
   13     8     9    17     9
   13     8     9    44     9
    7     8    10    11     9
    9     8    10    11     9
    7     8    13    14     9
    7     8    13    48     9
    7     8    13    49     9
    9     8    13    14     9
    9     8    13    48     9
    9     8    13    49     9
   10     8    13    14     9
   10     8    13    48     9
   10     8    13    49     9
    8     9     5    16     9
    5     9     8     7     9
    5     9     8    10     9
    5     9     8    13     9
    5     9    17    53     9
    8     9    17    53     9
   44     9    17    53     9
   11    10     8    13     9
    8    10    11    12     9
    8    10    11    45     9
    8    10    11    46     9
   10    11    12    14     9
   10    11    12    18     9
   10    11    12    47     9
   45    11    12    47     9
   46    11    12    47     9
   14    12    11    45     9
   14    12    11    46     9
   18    12    11    45     9
   18    12    11    46     9
   11    12    14    13     9
   11    12    14    19     9
   11    12    14    50     9
   18    12    14    19     9
   18    12    14    50     9
   47    12    14    50     9
   11    12    18    54     9
   11    12    18    55     9
   11    12    18    56     9
   14    12    18    54     9
   14    12    18    55     9
   14    12    18    56     9
   47    12    18    54     9
   47    12    18    55     9
   47    12    18    56     9
    8    13    14    12     9
    8    13    14    19     9
    8    13    14    50     9
   48    13    14    50     9
   49    13    14    50     9
   13    14    12    18     9
   13    14    12    47     9
   19    14    12    47     9
   12    14    13    48     9
   12    14    13    49     9
   19    14    13    48     9
   19    14    13    49     9
   12    14    19    20     9
   13    14    19    20     9
   20    19    14    50     9
   14    19    20    21     9
   14    19    20    22     9
   19    20    22    23     9
   19    20    22    28     9
   21    20    22    23     9
   21    20    22    28     9
   20    22    23    24     9
   20    22    23    57     9
   28    22    23    57     9
   20    22    28    27     9
   20    22    28    61     9
   23    22    28    27     9
   23    22    28    61     9
   24    23    22    28     9
   22    23    24    25     9
   22    23    24    58     9
   57    23    24    58     9
   25    24    23    57     9
   23    24    25    26     9
   23    24    25    27     9
   26    25    24    58     9
   27    25    24    58     9
   24    25    26    59     9
   27    25    26    59     9
   24    25    27    28     9
   24    25    27    60     9
   26    25    27    28     9
   26    25    27    60     9
   25    27    28    61     9
   60    27    28    61     9
   22    28    27    25     9
   22    28    27    60     9
   30    29     2    39     9
   31    29     2    39     9
    2    29    30    32     9
    2    29    30    62     9
   31    29    30    32     9
   31    29    30    62     9
   29    30    32    33     9
   29    30    32    63     9
   29    30    32    64     9
   62    30    32    63     9
   62    30    32    64     9
   33    32    30    62     9
   30    32    33    34     9
   30    32    33    65     9
   30    32    33    66     9
   63    32    33    65     9
   63    32    33    66     9
   64    32    33    65     9
   64    32    33    66     9
   34    33    32    63     9
   34    33    32    64     9
   32    33    34    35     9
   32    33    34    67     9
   32    33    34    68     9
   65    33    34    67     9
   65    33    34    68     9
   66    33    34    67     9
   66    33    34    68     9
   35    34    33    65     9
   35    34    33    66     9
   33    34    35    36     9
   33    34    35    69     9
   33    34    35    70     9
   67    34    35    69     9
   67    34    35    70     9
   68    34    35    69     9
   68    34    35    70     9
   36    35    34    67     9
   36    35    34    68     9
   34    35    36    71     9
   34    35    36    72     9
   34    35    36    73     9
   69    35    36    71     9
   69    35    36    72     9
   69    35    36    73     9
   70    35    36    71     9
   70    35    36    72     9
   70    35    36    73     9

[ dihedrals ]
; ai	aj	ak	al	funct	q0	cq
   20    22    21    19     2
   29     2    30    31     2

#ifdef POSRES
[ position_restraints ]
    1     1    POSRES_FC_BB    POSRES_FC_BB    POSRES_FC_BB   
    2     1    POSRES_FC_BB    POSRES_FC_BB    POSRES_FC_BB   
    3     1    POSRES_FC_BB    POSRES_FC_BB    POSRES_FC_BB   
    4     1    POSRES_FC_BB    POSRES_FC_BB    POSRES_FC_BB   
    5     1    POSRES_FC_BB    POSRES_FC_BB    POSRES_FC_BB   
    6     1    POSRES_FC_BB    POSRES_FC_BB    POSRES_FC_BB   
    7     1    POSRES_FC_BB    POSRES_FC_BB    POSRES_FC_BB   
    8     1    POSRES_FC_BB    POSRES_FC_BB    POSRES_FC_BB   
    9     1    POSRES_FC_BB    POSRES_FC_BB    POSRES_FC_BB   
   10     1    POSRES_FC_BB    POSRES_FC_BB    POSRES_FC_BB   
   11     1    POSRES_FC_BB    POSRES_FC_BB    POSRES_FC_BB   
   12     1    POSRES_FC_BB    POSRES_FC_BB    POSRES_FC_BB   
   13     1    POSRES_FC_BB    POSRES_FC_BB    POSRES_FC_BB   
   14     1    POSRES_FC_BB    POSRES_FC_BB    POSRES_FC_BB   
   15     1    POSRES_FC_BB    POSRES_FC_BB    POSRES_FC_BB   
   16     1    POSRES_FC_BB    POSRES_FC_BB    POSRES_FC_BB   
   17     1    POSRES_FC_BB    POSRES_FC_BB    POSRES_FC_BB   
   18     1    POSRES_FC_BB    POSRES_FC_BB    POSRES_FC_BB   
   19     1    POSRES_FC_BB    POSRES_FC_BB    POSRES_FC_BB   
   20     1    POSRES_FC_BB    POSRES_FC_BB    POSRES_FC_BB   
   21     1    POSRES_FC_BB    POSRES_FC_BB    POSRES_FC_BB   
   22     1    POSRES_FC_BB    POSRES_FC_BB    POSRES_FC_BB   
   23     1    POSRES_FC_BB    POSRES_FC_BB    POSRES_FC_BB   
   24     1    POSRES_FC_BB    POSRES_FC_BB    POSRES_FC_BB   
   25     1    POSRES_FC_BB    POSRES_FC_BB    POSRES_FC_BB   
   26     1    POSRES_FC_BB    POSRES_FC_BB    POSRES_FC_BB   
   27     1    POSRES_FC_BB    POSRES_FC_BB    POSRES_FC_BB   
   28     1    POSRES_FC_BB    POSRES_FC_BB    POSRES_FC_BB   
   29     1    POSRES_FC_BB    POSRES_FC_BB    POSRES_FC_BB   
   30     1    POSRES_FC_BB    POSRES_FC_BB    POSRES_FC_BB   
   31     1    POSRES_FC_BB    POSRES_FC_BB    POSRES_FC_BB   
   32     1    POSRES_FC_BB    POSRES_FC_BB    POSRES_FC_BB   
   33     1    POSRES_FC_BB    POSRES_FC_BB    POSRES_FC_BB   
   34     1    POSRES_FC_BB    POSRES_FC_BB    POSRES_FC_BB   
   35     1    POSRES_FC_BB    POSRES_FC_BB    POSRES_FC_BB   
   36     1    POSRES_FC_BB    POSRES_FC_BB    POSRES_FC_BB   
#endif
