[ 7 ]
1
[ 231 ]
4
[ 260 ]
2
[ 261 ]
12
[ 262 ]
3
7
[ 263 ]
5
[ 264 ]
6
30
38
68
[ 265 ]
59
[ 270 ]
61
[ 293 ]
44
[ 294 ]
13
18
[ 295 ]
8
24
31
34
43
[ 296 ]
9
11
16
32
33
56
[ 297 ]
26
28
29
41
65
[ 298 ]
15
21
57
[ 299 ]
10
40
46
47
54
55
60
62
63
70
96
[ 300 ]
66
69
79
[ 301 ]
97
[ 302 ]
51
76
105
[ 303 ]
50
67
74
75
84
[ 304 ]
83
[ 326 ]
17
25
37
[ 327 ]
22
23
36
39
[ 328 ]
27
42
64
[ 329 ]
14
58
148
[ 330 ]
88
124
[ 331 ]
45
140
[ 332 ]
35
71
130
145
[ 333 ]
49
53
72
77
100
103
127
131
[ 334 ]
48
73
95
98
149
[ 335 ]
99
[ 336 ]
92
94
104
152
[ 337 ]
81
82
86
106
[ 338 ]
80
[ 339 ]
93
[ 340 ]
151
[ 359 ]
135
[ 360 ]
20
[ 361 ]
125
[ 362 ]
147
[ 363 ]
19
85
121
[ 364 ]
126
128
154
[ 365 ]
102
137
139
143
159
160
[ 366 ]
89
110
129
132
133
134
138
144
153
[ 367 ]
52
117
122
142
181
[ 368 ]
78
101
107
141
146
150
176
[ 369 ]
90
108
109
111
157
158
177
[ 370 ]
91
[ 394 ]
183
[ 395 ]
169
[ 396 ]
171
179
[ 397 ]
155
156
161
173
[ 398 ]
180
[ 399 ]
87
116
123
136
167
[ 400 ]
119
168
178
184
[ 401 ]
118
172
[ 402 ]
164
[ 403 ]
185
[ 405 ]
175
[ 423 ]
710
[ 425 ]
885
[ 426 ]
671
[ 427 ]
201
711
744
[ 429 ]
430
635
766
[ 430 ]
170
718
755
773
[ 431 ]
162
504
[ 432 ]
166
364
778
[ 434 ]
112
[ 436 ]
174
[ 438 ]
187
[ 455 ]
366
[ 456 ]
628
660
[ 458 ]
422
483
485
632
[ 459 ]
365
421
627
706
719
761
802
[ 460 ]
335
427
505
506
517
636
709
714
743
762
772
[ 461 ]
418
465
476
737
747
760
779
780
804
970
974
[ 462 ]
182
362
426
503
522
713
769
807
967
[ 463 ]
428
433
515
521
630
716
741
763
764
767
770
819
932
[ 464 ]
114
165
194
435
[ 465 ]
436
437
717
768
781
798
[ 466 ]
774
[ 467 ]
120
440
[ 469 ]
439
[ 470 ]
186
[ 471 ]
115
191
[ 475 ]
192
[ 485 ]
346
623
644
[ 486 ]
348
626
[ 487 ]
355
[ 488 ]
400
661
748
754
771
[ 489 ]
208
221
328
336
354
395
396
419
621
625
657
683
712
783
884
[ 490 ]
220
349
407
417
659
668
684
689
981
[ 491 ]
202
207
338
357
368
391
416
423
481
487
634
641
681
682
687
691
749
750
756
757
758
786
875
883
[ 492 ]
196
367
383
388
424
479
484
519
688
702
705
707
742
800
853
880
968
969
972
[ 493 ]
197
205
233
411
412
420
429
431
444
518
614
629
720
745
746
759
808
817
834
876
879
898
977
[ 494 ]
333
334
361
370
432
453
469
471
477
478
631
640
672
680
686
803
809
860
882
976
978
987
[ 495 ]
256
359
385
392
442
523
639
721
738
765
776
777
806
814
820
821
844
845
850
856
857
863
966
[ 496 ]
363
399
480
509
516
775
782
805
832
877
964
[ 497 ]
163
438
633
739
815
849
[ 498 ]
434
826
848
[ 499 ]
810
812
[ 500 ]
940
[ 502 ]
190
[ 503 ]
113
[ 504 ]
441
[ 505 ]
193
[ 509 ]
188
[ 516 ]
347
[ 517 ]
353
753
[ 518 ]
339
344
642
645
[ 519 ]
206
222
312
605
611
622
666
669
700
874
[ 520 ]
387
643
667
685
692
699
990
[ 521 ]
224
330
332
341
350
351
375
377
408
647
653
789
816
878
973
988
[ 522 ]
211
226
251
340
401
410
415
493
610
651
785
788
818
869
887
971
[ 523 ]
342
352
393
445
448
451
488
492
513
604
638
723
751
752
858
871
899
913
931
947
986
[ 524 ]
200
337
369
413
475
482
511
620
673
690
695
696
708
722
727
796
830
836
841
881
923
975
979
[ 525 ]
316
358
378
398
405
472
473
474
512
514
794
797
824
866
867
941
948
949
950
985
[ 526 ]
257
356
360
390
414
452
470
489
494
529
715
729
787
822
861
862
864
934
939
943
944
965
[ 527 ]
397
404
406
443
457
467
507
525
701
799
827
829
870
907
908
933
954
956
963
[ 528 ]
204
372
389
425
524
843
865
[ 529 ]
198
239
508
740
811
859
942
[ 531 ]
813
[ 538 ]
189
[ 549 ]
210
345
674
[ 551 ]
329
606
619
648
868
896
[ 552 ]
379
624
678
704
784
993
[ 553 ]
219
324
326
374
449
490
650
652
658
670
675
679
725
995
[ 554 ]
217
319
322
373
450
615
637
654
664
694
790
872
873
906
928
989
998
[ 555 ]
195
311
331
343
381
382
384
386
394
446
459
460
491
500
520
607
616
617
676
693
733
886
889
890
901 # this
[ 556 ]
203
240
376
466
502
613
677
697
728
730
732
795
852
897
912
915
916
917
925
936
945
982
[ 557 ]
209
230
371
454
455
837
842
846
855
900
903
910
918
929
930
937
957
962
[ 558 ]
199
232
234
236
313
402
458
461
462
468
510
528
530
532
612
823
825
828
833
924
935
[ 559 ]
447
526
527
609
847
909
961
[ 560 ]
243
403
501
952
[ 561 ]
496
831
835
[ 562 ]
955
[ 580 ]
542
[ 581 ]
586
591
598
665
[ 582 ]
212
583
791
[ 583 ]
213
216
287
541
579
655
656
663
793
[ 584 ]
575
589
608
662
698
724
734
[ 585 ]
288
592
603
735
792
888
902
922
984
1000
[ 586 ]
215
235
303
317
325
456
646
736
894
905
911
953
980
994
997
[ 587 ]
295
314
318
320
535
726
891
895
920
946
999
[ 588 ]
238
315
323
486
536
537
540
618
649
731
838
840
892
927
959
[ 589 ]
409
703
801
851
919
983
1001
[ 590 ]
229
250
463
499
854
904
958
960
991
[ 591 ]
225
231
254
497
498
531
534
938
951
996
[ 592 ]
242
464
[ 593 ]
244
255
495
[ 594 ]
252
[ 611 ]
599
[ 612 ]
544
570
574
576
[ 613 ]
285
581
597
600
601
602
[ 615 ]
290
561
563
573
582
587
596
[ 616 ]
289
308
560
578
584
[ 617 ]
223
305
309
310
327
567
572
921
[ 618 ]
298
321
893
914
[ 619 ]
214
304
[ 620 ]
228
237
380
992
[ 621 ]
218
246
538
[ 622 ]
839
[ 623 ]
260
533
[ 625 ]
253
[ 643 ]
595
[ 644 ]
545
547
550
[ 645 ]
543
551
569
577
585
588
[ 646 ]
552
568
[ 647 ]
286
564
566
571
[ 648 ]
546
590
593
[ 649 ]
302
[ 650 ]
297
539
565
[ 651 ]
291
292
299
[ 652 ]
296
307
926
[ 653 ]
278
293
[ 654 ]
247
279
300
306
[ 655 ]
284
[ 658 ]
259
[ 660 ]
241
[ 663 ]
258
[ 674 ]
548
[ 676 ]
554
557
[ 677 ]
580
594
[ 679 ]
558
559
562
[ 683 ]
294
301
[ 684 ]
227
[ 685 ]
245
[ 687 ]
248
[ 688 ]
249
[ 689 ]
281
[ 690 ]
280
[ 706 ]
553
[ 707 ]
555
[ 709 ]
549
[ 718 ]
261
[ 722 ]
283
[ 736 ]
556
[ 751 ]
282
[ 784 ]
268
[ 792 ]
267
[ 818 ]
262
[ 848 ]
273
[ 849 ]
263
[ 879 ]
269
[ 882 ]
274
277
[ 883 ]
270
[ 916 ]
271
[ 917 ]
275
[ 943 ]
276
[ 945 ]
272
[ 955 ]
264
[ 991 ]
266
[ 1022 ]
265
