;;
;; Generated by CHARMM-GUI FF-Converter
;;
;; Correspondance:
;; jul316@lehigh.edu or wonpil@lehigh.edu
;;
;; GROMACS topology file for RNAA
;;


[ moleculetype ]
; name	nrexcl
RNAA	     3

[ atoms ]
; nr	type	resnr	residu	atom	cgnr	charge	mass
     1        HN5      1      ADE    H5T      1     0.430000     1.0080   ; qtot  0.430
     2        ON5      1      ADE    O5'      2    -0.660000    15.9994   ; qtot -0.230
     3       CN8B      1      ADE    C5'      3     0.050000    12.0110   ; qtot -0.180
     4        HN8      1      ADE    H5'      4     0.090000     1.0080   ; qtot -0.090
     5        HN8      1      ADE   H5''      5     0.090000     1.0080   ; qtot -0.000
     6        CN7      1      ADE    C4'      6     0.160000    12.0110   ; qtot  0.160
     7        HN7      1      ADE    H4'      7     0.090000     1.0080   ; qtot  0.250
     8       ON6B      1      ADE    O4'      8    -0.500000    15.9994   ; qtot -0.250
     9       CN7B      1      ADE    C1'      9     0.160000    12.0110   ; qtot -0.090
    10        HN7      1      ADE    H1'     10     0.090000     1.0080   ; qtot -0.000
    11        NN2      1      ADE     N9     11    -0.050000    14.0070   ; qtot -0.050
    12        CN5      1      ADE     C5     12     0.280000    12.0110   ; qtot  0.230
    13        NN4      1      ADE     N7     13    -0.710000    14.0070   ; qtot -0.480
    14        CN4      1      ADE     C8     14     0.340000    12.0110   ; qtot -0.140
    15        HN3      1      ADE     H8     15     0.120000     1.0080   ; qtot -0.020
    16       NN3A      1      ADE     N1     16    -0.740000    14.0070   ; qtot -0.760
    17        CN4      1      ADE     C2     17     0.500000    12.0110   ; qtot -0.260
    18        HN3      1      ADE     H2     18     0.130000     1.0080   ; qtot -0.130
    19       NN3A      1      ADE     N3     19    -0.750000    14.0070   ; qtot -0.880
    20        CN5      1      ADE     C4     20     0.430000    12.0110   ; qtot -0.450
    21        CN2      1      ADE     C6     21     0.460000    12.0110   ; qtot  0.010
    22        NN1      1      ADE     N6     22    -0.770000    14.0070   ; qtot -0.760
    23        HN1      1      ADE    H61     23     0.380000     1.0080   ; qtot -0.380
    24        HN1      1      ADE    H62     24     0.380000     1.0080   ; qtot  0.000
    25       CN7B      1      ADE    C2'     25     0.140000    12.0110   ; qtot  0.140
    26        HN7      1      ADE   H2''     26     0.090000     1.0080   ; qtot  0.230
    27        ON5      1      ADE    O2'     27    -0.660000    15.9994   ; qtot -0.430
    28        HN5      1      ADE    H2'     28     0.430000     1.0080   ; qtot -0.000
    29        CN7      1      ADE    C3'     29     0.010000    12.0110   ; qtot  0.010
    30        HN7      1      ADE    H3'     30     0.090000     1.0080   ; qtot  0.100
    31        ON2      1      ADE    O3'     31    -0.570000    15.9994   ; qtot -0.470
    32          P      2      ADE      P     32     1.500000    30.9740   ; qtot  1.030
    33        ON3      2      ADE    O1P     33    -0.780000    15.9994   ; qtot  0.250
    34        ON3      2      ADE    O2P     34    -0.780000    15.9994   ; qtot -0.530
    35        ON2      2      ADE    O5'     35    -0.570000    15.9994   ; qtot -1.100
    36       CN8B      2      ADE    C5'     36    -0.080000    12.0110   ; qtot -1.180
    37        HN8      2      ADE    H5'     37     0.090000     1.0080   ; qtot -1.090
    38        HN8      2      ADE   H5''     38     0.090000     1.0080   ; qtot -1.000
    39        CN7      2      ADE    C4'     39     0.160000    12.0110   ; qtot -0.840
    40        HN7      2      ADE    H4'     40     0.090000     1.0080   ; qtot -0.750
    41       ON6B      2      ADE    O4'     41    -0.500000    15.9994   ; qtot -1.250
    42       CN7B      2      ADE    C1'     42     0.160000    12.0110   ; qtot -1.090
    43        HN7      2      ADE    H1'     43     0.090000     1.0080   ; qtot -1.000
    44        NN2      2      ADE     N9     44    -0.050000    14.0070   ; qtot -1.050
    45        CN5      2      ADE     C5     45     0.280000    12.0110   ; qtot -0.770
    46        NN4      2      ADE     N7     46    -0.710000    14.0070   ; qtot -1.480
    47        CN4      2      ADE     C8     47     0.340000    12.0110   ; qtot -1.140
    48        HN3      2      ADE     H8     48     0.120000     1.0080   ; qtot -1.020
    49       NN3A      2      ADE     N1     49    -0.740000    14.0070   ; qtot -1.760
    50        CN4      2      ADE     C2     50     0.500000    12.0110   ; qtot -1.260
    51        HN3      2      ADE     H2     51     0.130000     1.0080   ; qtot -1.130
    52       NN3A      2      ADE     N3     52    -0.750000    14.0070   ; qtot -1.880
    53        CN5      2      ADE     C4     53     0.430000    12.0110   ; qtot -1.450
    54        CN2      2      ADE     C6     54     0.460000    12.0110   ; qtot -0.990
    55        NN1      2      ADE     N6     55    -0.770000    14.0070   ; qtot -1.760
    56        HN1      2      ADE    H61     56     0.380000     1.0080   ; qtot -1.380
    57        HN1      2      ADE    H62     57     0.380000     1.0080   ; qtot -1.000
    58       CN7B      2      ADE    C2'     58     0.140000    12.0110   ; qtot -0.860
    59        HN7      2      ADE   H2''     59     0.090000     1.0080   ; qtot -0.770
    60        ON5      2      ADE    O2'     60    -0.660000    15.9994   ; qtot -1.430
    61        HN5      2      ADE    H2'     61     0.430000     1.0080   ; qtot -1.000
    62        CN7      2      ADE    C3'     62     0.010000    12.0110   ; qtot -0.990
    63        HN7      2      ADE    H3'     63     0.090000     1.0080   ; qtot -0.900
    64        ON2      2      ADE    O3'     64    -0.570000    15.9994   ; qtot -1.470
    65          P      3      GUA      P     65     1.500000    30.9740   ; qtot  0.030
    66        ON3      3      GUA    O1P     66    -0.780000    15.9994   ; qtot -0.750
    67        ON3      3      GUA    O2P     67    -0.780000    15.9994   ; qtot -1.530
    68        ON2      3      GUA    O5'     68    -0.570000    15.9994   ; qtot -2.100
    69       CN8B      3      GUA    C5'     69    -0.080000    12.0110   ; qtot -2.180
    70        HN8      3      GUA    H5'     70     0.090000     1.0080   ; qtot -2.090
    71        HN8      3      GUA   H5''     71     0.090000     1.0080   ; qtot -2.000
    72        CN7      3      GUA    C4'     72     0.160000    12.0110   ; qtot -1.840
    73        HN7      3      GUA    H4'     73     0.090000     1.0080   ; qtot -1.750
    74       ON6B      3      GUA    O4'     74    -0.500000    15.9994   ; qtot -2.250
    75       CN7B      3      GUA    C1'     75     0.160000    12.0110   ; qtot -2.090
    76        HN7      3      GUA    H1'     76     0.090000     1.0080   ; qtot -2.000
    77       NN2B      3      GUA     N9     77    -0.020000    14.0070   ; qtot -2.020
    78        CN5      3      GUA     C4     78     0.260000    12.0110   ; qtot -1.760
    79        NN1      3      GUA     N2     79    -0.680000    14.0070   ; qtot -2.440
    80        HN1      3      GUA    H21     80     0.320000     1.0080   ; qtot -2.120
    81        HN1      3      GUA    H22     81     0.350000     1.0080   ; qtot -1.770
    82       NN3G      3      GUA     N3     82    -0.740000    14.0070   ; qtot -2.510
    83        CN2      3      GUA     C2     83     0.750000    12.0110   ; qtot -1.760
    84       NN2G      3      GUA     N1     84    -0.340000    14.0070   ; qtot -2.100
    85        HN2      3      GUA     H1     85     0.260000     1.0080   ; qtot -1.840
    86        CN1      3      GUA     C6     86     0.540000    12.0110   ; qtot -1.300
    87        ON1      3      GUA     O6     87    -0.510000    15.9994   ; qtot -1.810
    88       CN5G      3      GUA     C5     88     0.000000    12.0110   ; qtot -1.810
    89        NN4      3      GUA     N7     89    -0.600000    14.0070   ; qtot -2.410
    90        CN4      3      GUA     C8     90     0.250000    12.0110   ; qtot -2.160
    91        HN3      3      GUA     H8     91     0.160000     1.0080   ; qtot -2.000
    92       CN7B      3      GUA    C2'     92     0.140000    12.0110   ; qtot -1.860
    93        HN7      3      GUA   H2''     93     0.090000     1.0080   ; qtot -1.770
    94        ON5      3      GUA    O2'     94    -0.660000    15.9994   ; qtot -2.430
    95        HN5      3      GUA    H2'     95     0.430000     1.0080   ; qtot -2.000
    96        CN7      3      GUA    C3'     96     0.010000    12.0110   ; qtot -1.990
    97        HN7      3      GUA    H3'     97     0.090000     1.0080   ; qtot -1.900
    98        ON2      3      GUA    O3'     98    -0.570000    15.9994   ; qtot -2.470
    99          P      4      GUA      P     99     1.500000    30.9740   ; qtot -0.970
   100        ON3      4      GUA    O1P    100    -0.780000    15.9994   ; qtot -1.750
   101        ON3      4      GUA    O2P    101    -0.780000    15.9994   ; qtot -2.530
   102        ON2      4      GUA    O5'    102    -0.570000    15.9994   ; qtot -3.100
   103       CN8B      4      GUA    C5'    103    -0.080000    12.0110   ; qtot -3.180
   104        HN8      4      GUA    H5'    104     0.090000     1.0080   ; qtot -3.090
   105        HN8      4      GUA   H5''    105     0.090000     1.0080   ; qtot -3.000
   106        CN7      4      GUA    C4'    106     0.160000    12.0110   ; qtot -2.840
   107        HN7      4      GUA    H4'    107     0.090000     1.0080   ; qtot -2.750
   108       ON6B      4      GUA    O4'    108    -0.500000    15.9994   ; qtot -3.250
   109       CN7B      4      GUA    C1'    109     0.160000    12.0110   ; qtot -3.090
   110        HN7      4      GUA    H1'    110     0.090000     1.0080   ; qtot -3.000
   111       NN2B      4      GUA     N9    111    -0.020000    14.0070   ; qtot -3.020
   112        CN5      4      GUA     C4    112     0.260000    12.0110   ; qtot -2.760
   113        NN1      4      GUA     N2    113    -0.680000    14.0070   ; qtot -3.440
   114        HN1      4      GUA    H21    114     0.320000     1.0080   ; qtot -3.120
   115        HN1      4      GUA    H22    115     0.350000     1.0080   ; qtot -2.770
   116       NN3G      4      GUA     N3    116    -0.740000    14.0070   ; qtot -3.510
   117        CN2      4      GUA     C2    117     0.750000    12.0110   ; qtot -2.760
   118       NN2G      4      GUA     N1    118    -0.340000    14.0070   ; qtot -3.100
   119        HN2      4      GUA     H1    119     0.260000     1.0080   ; qtot -2.840
   120        CN1      4      GUA     C6    120     0.540000    12.0110   ; qtot -2.300
   121        ON1      4      GUA     O6    121    -0.510000    15.9994   ; qtot -2.810
   122       CN5G      4      GUA     C5    122     0.000000    12.0110   ; qtot -2.810
   123        NN4      4      GUA     N7    123    -0.600000    14.0070   ; qtot -3.410
   124        CN4      4      GUA     C8    124     0.250000    12.0110   ; qtot -3.160
   125        HN3      4      GUA     H8    125     0.160000     1.0080   ; qtot -3.000
   126       CN7B      4      GUA    C2'    126     0.140000    12.0110   ; qtot -2.860
   127        HN7      4      GUA   H2''    127     0.090000     1.0080   ; qtot -2.770
   128        ON5      4      GUA    O2'    128    -0.660000    15.9994   ; qtot -3.430
   129        HN5      4      GUA    H2'    129     0.430000     1.0080   ; qtot -3.000
   130        CN7      4      GUA    C3'    130     0.010000    12.0110   ; qtot -2.990
   131        HN7      4      GUA    H3'    131     0.090000     1.0080   ; qtot -2.900
   132        ON2      4      GUA    O3'    132    -0.570000    15.9994   ; qtot -3.470
   133          P      5      ADE      P    133     1.500000    30.9740   ; qtot -1.970
   134        ON3      5      ADE    O1P    134    -0.780000    15.9994   ; qtot -2.750
   135        ON3      5      ADE    O2P    135    -0.780000    15.9994   ; qtot -3.530
   136        ON2      5      ADE    O5'    136    -0.570000    15.9994   ; qtot -4.100
   137       CN8B      5      ADE    C5'    137    -0.080000    12.0110   ; qtot -4.180
   138        HN8      5      ADE    H5'    138     0.090000     1.0080   ; qtot -4.090
   139        HN8      5      ADE   H5''    139     0.090000     1.0080   ; qtot -4.000
   140        CN7      5      ADE    C4'    140     0.160000    12.0110   ; qtot -3.840
   141        HN7      5      ADE    H4'    141     0.090000     1.0080   ; qtot -3.750
   142       ON6B      5      ADE    O4'    142    -0.500000    15.9994   ; qtot -4.250
   143       CN7B      5      ADE    C1'    143     0.160000    12.0110   ; qtot -4.090
   144        HN7      5      ADE    H1'    144     0.090000     1.0080   ; qtot -4.000
   145        NN2      5      ADE     N9    145    -0.050000    14.0070   ; qtot -4.050
   146        CN5      5      ADE     C5    146     0.280000    12.0110   ; qtot -3.770
   147        NN4      5      ADE     N7    147    -0.710000    14.0070   ; qtot -4.480
   148        CN4      5      ADE     C8    148     0.340000    12.0110   ; qtot -4.140
   149        HN3      5      ADE     H8    149     0.120000     1.0080   ; qtot -4.020
   150       NN3A      5      ADE     N1    150    -0.740000    14.0070   ; qtot -4.760
   151        CN4      5      ADE     C2    151     0.500000    12.0110   ; qtot -4.260
   152        HN3      5      ADE     H2    152     0.130000     1.0080   ; qtot -4.130
   153       NN3A      5      ADE     N3    153    -0.750000    14.0070   ; qtot -4.880
   154        CN5      5      ADE     C4    154     0.430000    12.0110   ; qtot -4.450
   155        CN2      5      ADE     C6    155     0.460000    12.0110   ; qtot -3.990
   156        NN1      5      ADE     N6    156    -0.770000    14.0070   ; qtot -4.760
   157        HN1      5      ADE    H61    157     0.380000     1.0080   ; qtot -4.380
   158        HN1      5      ADE    H62    158     0.380000     1.0080   ; qtot -4.000
   159       CN7B      5      ADE    C2'    159     0.140000    12.0110   ; qtot -3.860
   160        HN7      5      ADE   H2''    160     0.090000     1.0080   ; qtot -3.770
   161        ON5      5      ADE    O2'    161    -0.660000    15.9994   ; qtot -4.430
   162        HN5      5      ADE    H2'    162     0.430000     1.0080   ; qtot -4.000
   163        CN7      5      ADE    C3'    163     0.010000    12.0110   ; qtot -3.990
   164        HN7      5      ADE    H3'    164     0.090000     1.0080   ; qtot -3.900
   165        ON2      5      ADE    O3'    165    -0.570000    15.9994   ; qtot -4.470
   166          P      6      CYT      P    166     1.500000    30.9740   ; qtot -2.970
   167        ON3      6      CYT    O1P    167    -0.780000    15.9994   ; qtot -3.750
   168        ON3      6      CYT    O2P    168    -0.780000    15.9994   ; qtot -4.530
   169        ON2      6      CYT    O5'    169    -0.570000    15.9994   ; qtot -5.100
   170       CN8B      6      CYT    C5'    170    -0.080000    12.0110   ; qtot -5.180
   171        HN8      6      CYT    H5'    171     0.090000     1.0080   ; qtot -5.090
   172        HN8      6      CYT   H5''    172     0.090000     1.0080   ; qtot -5.000
   173        CN7      6      CYT    C4'    173     0.160000    12.0110   ; qtot -4.840
   174        HN7      6      CYT    H4'    174     0.090000     1.0080   ; qtot -4.750
   175       ON6B      6      CYT    O4'    175    -0.500000    15.9994   ; qtot -5.250
   176       CN7B      6      CYT    C1'    176     0.160000    12.0110   ; qtot -5.090
   177        HN7      6      CYT    H1'    177     0.090000     1.0080   ; qtot -5.000
   178        NN2      6      CYT     N1    178    -0.130000    14.0070   ; qtot -5.130
   179        CN3      6      CYT     C6    179     0.050000    12.0110   ; qtot -5.080
   180        HN3      6      CYT     H6    180     0.170000     1.0080   ; qtot -4.910
   181        CN3      6      CYT     C5    181    -0.130000    12.0110   ; qtot -5.040
   182        HN3      6      CYT     H5    182     0.070000     1.0080   ; qtot -4.970
   183        CN1      6      CYT     C2    183     0.520000    12.0110   ; qtot -4.450
   184       ON1C      6      CYT     O2    184    -0.490000    15.9994   ; qtot -4.940
   185        NN3      6      CYT     N3    185    -0.660000    14.0070   ; qtot -5.600
   186        CN2      6      CYT     C4    186     0.650000    12.0110   ; qtot -4.950
   187        NN1      6      CYT     N4    187    -0.750000    14.0070   ; qtot -5.700
   188        HN1      6      CYT    H41    188     0.370000     1.0080   ; qtot -5.330
   189        HN1      6      CYT    H42    189     0.330000     1.0080   ; qtot -5.000
   190       CN7B      6      CYT    C2'    190     0.140000    12.0110   ; qtot -4.860
   191        HN7      6      CYT   H2''    191     0.090000     1.0080   ; qtot -4.770
   192        ON5      6      CYT    O2'    192    -0.660000    15.9994   ; qtot -5.430
   193        HN5      6      CYT    H2'    193     0.430000     1.0080   ; qtot -5.000
   194        CN7      6      CYT    C3'    194     0.010000    12.0110   ; qtot -4.990
   195        HN7      6      CYT    H3'    195     0.090000     1.0080   ; qtot -4.900
   196        ON2      6      CYT    O3'    196    -0.570000    15.9994   ; qtot -5.470
   197          P      7      URA      P    197     1.500000    30.9740   ; qtot -3.970
   198        ON3      7      URA    O1P    198    -0.780000    15.9994   ; qtot -4.750
   199        ON3      7      URA    O2P    199    -0.780000    15.9994   ; qtot -5.530
   200        ON2      7      URA    O5'    200    -0.570000    15.9994   ; qtot -6.100
   201       CN8B      7      URA    C5'    201    -0.080000    12.0110   ; qtot -6.180
   202        HN8      7      URA    H5'    202     0.090000     1.0080   ; qtot -6.090
   203        HN8      7      URA   H5''    203     0.090000     1.0080   ; qtot -6.000
   204        CN7      7      URA    C4'    204     0.160000    12.0110   ; qtot -5.840
   205        HN7      7      URA    H4'    205     0.090000     1.0080   ; qtot -5.750
   206       ON6B      7      URA    O4'    206    -0.500000    15.9994   ; qtot -6.250
   207       CN7B      7      URA    C1'    207     0.160000    12.0110   ; qtot -6.090
   208        HN7      7      URA    H1'    208     0.090000     1.0080   ; qtot -6.000
   209       NN2B      7      URA     N1    209    -0.340000    14.0070   ; qtot -6.340
   210        CN3      7      URA     C6    210     0.200000    12.0110   ; qtot -6.140
   211        HN3      7      URA     H6    211     0.140000     1.0080   ; qtot -6.000
   212       CN1T      7      URA     C2    212     0.550000    12.0110   ; qtot -5.450
   213        ON1      7      URA     O2    213    -0.450000    15.9994   ; qtot -5.900
   214       NN2U      7      URA     N3    214    -0.460000    14.0070   ; qtot -6.360
   215        HN2      7      URA     H3    215     0.360000     1.0080   ; qtot -6.000
   216        CN1      7      URA     C4    216     0.530000    12.0110   ; qtot -5.470
   217        ON1      7      URA     O4    217    -0.480000    15.9994   ; qtot -5.950
   218        CN3      7      URA     C5    218    -0.150000    12.0110   ; qtot -6.100
   219        HN3      7      URA     H5    219     0.100000     1.0080   ; qtot -6.000
   220       CN7B      7      URA    C2'    220     0.140000    12.0110   ; qtot -5.860
   221        HN7      7      URA   H2''    221     0.090000     1.0080   ; qtot -5.770
   222        ON5      7      URA    O2'    222    -0.660000    15.9994   ; qtot -6.430
   223        HN5      7      URA    H2'    223     0.430000     1.0080   ; qtot -6.000
   224        CN7      7      URA    C3'    224     0.010000    12.0110   ; qtot -5.990
   225        HN7      7      URA    H3'    225     0.090000     1.0080   ; qtot -5.900
   226        ON2      7      URA    O3'    226    -0.570000    15.9994   ; qtot -6.470
   227          P      8      ADE      P    227     1.500000    30.9740   ; qtot -4.970
   228        ON3      8      ADE    O1P    228    -0.780000    15.9994   ; qtot -5.750
   229        ON3      8      ADE    O2P    229    -0.780000    15.9994   ; qtot -6.530
   230        ON2      8      ADE    O5'    230    -0.570000    15.9994   ; qtot -7.100
   231       CN8B      8      ADE    C5'    231    -0.080000    12.0110   ; qtot -7.180
   232        HN8      8      ADE    H5'    232     0.090000     1.0080   ; qtot -7.090
   233        HN8      8      ADE   H5''    233     0.090000     1.0080   ; qtot -7.000
   234        CN7      8      ADE    C4'    234     0.160000    12.0110   ; qtot -6.840
   235        HN7      8      ADE    H4'    235     0.090000     1.0080   ; qtot -6.750
   236       ON6B      8      ADE    O4'    236    -0.500000    15.9994   ; qtot -7.250
   237       CN7B      8      ADE    C1'    237     0.160000    12.0110   ; qtot -7.090
   238        HN7      8      ADE    H1'    238     0.090000     1.0080   ; qtot -7.000
   239        NN2      8      ADE     N9    239    -0.050000    14.0070   ; qtot -7.050
   240        CN5      8      ADE     C5    240     0.280000    12.0110   ; qtot -6.770
   241        NN4      8      ADE     N7    241    -0.710000    14.0070   ; qtot -7.480
   242        CN4      8      ADE     C8    242     0.340000    12.0110   ; qtot -7.140
   243        HN3      8      ADE     H8    243     0.120000     1.0080   ; qtot -7.020
   244       NN3A      8      ADE     N1    244    -0.740000    14.0070   ; qtot -7.760
   245        CN4      8      ADE     C2    245     0.500000    12.0110   ; qtot -7.260
   246        HN3      8      ADE     H2    246     0.130000     1.0080   ; qtot -7.130
   247       NN3A      8      ADE     N3    247    -0.750000    14.0070   ; qtot -7.880
   248        CN5      8      ADE     C4    248     0.430000    12.0110   ; qtot -7.450
   249        CN2      8      ADE     C6    249     0.460000    12.0110   ; qtot -6.990
   250        NN1      8      ADE     N6    250    -0.770000    14.0070   ; qtot -7.760
   251        HN1      8      ADE    H61    251     0.380000     1.0080   ; qtot -7.380
   252        HN1      8      ADE    H62    252     0.380000     1.0080   ; qtot -7.000
   253       CN7B      8      ADE    C2'    253     0.140000    12.0110   ; qtot -6.860
   254        HN7      8      ADE   H2''    254     0.090000     1.0080   ; qtot -6.770
   255        ON5      8      ADE    O2'    255    -0.660000    15.9994   ; qtot -7.430
   256        HN5      8      ADE    H2'    256     0.430000     1.0080   ; qtot -7.000
   257        CN7      8      ADE    C3'    257     0.010000    12.0110   ; qtot -6.990
   258        HN7      8      ADE    H3'    258     0.090000     1.0080   ; qtot -6.900
   259        ON2      8      ADE    O3'    259    -0.570000    15.9994   ; qtot -7.470
   260          P      9      GUA      P    260     1.500000    30.9740   ; qtot -5.970
   261        ON3      9      GUA    O1P    261    -0.780000    15.9994   ; qtot -6.750
   262        ON3      9      GUA    O2P    262    -0.780000    15.9994   ; qtot -7.530
   263        ON2      9      GUA    O5'    263    -0.570000    15.9994   ; qtot -8.100
   264       CN8B      9      GUA    C5'    264    -0.080000    12.0110   ; qtot -8.180
   265        HN8      9      GUA    H5'    265     0.090000     1.0080   ; qtot -8.090
   266        HN8      9      GUA   H5''    266     0.090000     1.0080   ; qtot -8.000
   267        CN7      9      GUA    C4'    267     0.160000    12.0110   ; qtot -7.840
   268        HN7      9      GUA    H4'    268     0.090000     1.0080   ; qtot -7.750
   269       ON6B      9      GUA    O4'    269    -0.500000    15.9994   ; qtot -8.250
   270       CN7B      9      GUA    C1'    270     0.160000    12.0110   ; qtot -8.090
   271        HN7      9      GUA    H1'    271     0.090000     1.0080   ; qtot -8.000
   272       NN2B      9      GUA     N9    272    -0.020000    14.0070   ; qtot -8.020
   273        CN5      9      GUA     C4    273     0.260000    12.0110   ; qtot -7.760
   274        NN1      9      GUA     N2    274    -0.680000    14.0070   ; qtot -8.440
   275        HN1      9      GUA    H21    275     0.320000     1.0080   ; qtot -8.120
   276        HN1      9      GUA    H22    276     0.350000     1.0080   ; qtot -7.770
   277       NN3G      9      GUA     N3    277    -0.740000    14.0070   ; qtot -8.510
   278        CN2      9      GUA     C2    278     0.750000    12.0110   ; qtot -7.760
   279       NN2G      9      GUA     N1    279    -0.340000    14.0070   ; qtot -8.100
   280        HN2      9      GUA     H1    280     0.260000     1.0080   ; qtot -7.840
   281        CN1      9      GUA     C6    281     0.540000    12.0110   ; qtot -7.300
   282        ON1      9      GUA     O6    282    -0.510000    15.9994   ; qtot -7.810
   283       CN5G      9      GUA     C5    283     0.000000    12.0110   ; qtot -7.810
   284        NN4      9      GUA     N7    284    -0.600000    14.0070   ; qtot -8.410
   285        CN4      9      GUA     C8    285     0.250000    12.0110   ; qtot -8.160
   286        HN3      9      GUA     H8    286     0.160000     1.0080   ; qtot -8.000
   287       CN7B      9      GUA    C2'    287     0.140000    12.0110   ; qtot -7.860
   288        HN7      9      GUA   H2''    288     0.090000     1.0080   ; qtot -7.770
   289        ON5      9      GUA    O2'    289    -0.660000    15.9994   ; qtot -8.430
   290        HN5      9      GUA    H2'    290     0.430000     1.0080   ; qtot -8.000
   291        CN7      9      GUA    C3'    291     0.010000    12.0110   ; qtot -7.990
   292        HN7      9      GUA    H3'    292     0.090000     1.0080   ; qtot -7.900
   293        ON2      9      GUA    O3'    293    -0.570000    15.9994   ; qtot -8.470
   294          P     10      CYT      P    294     1.500000    30.9740   ; qtot -6.970
   295        ON3     10      CYT    O1P    295    -0.780000    15.9994   ; qtot -7.750
   296        ON3     10      CYT    O2P    296    -0.780000    15.9994   ; qtot -8.530
   297        ON2     10      CYT    O5'    297    -0.570000    15.9994   ; qtot -9.100
   298       CN8B     10      CYT    C5'    298    -0.080000    12.0110   ; qtot -9.180
   299        HN8     10      CYT    H5'    299     0.090000     1.0080   ; qtot -9.090
   300        HN8     10      CYT   H5''    300     0.090000     1.0080   ; qtot -9.000
   301        CN7     10      CYT    C4'    301     0.160000    12.0110   ; qtot -8.840
   302        HN7     10      CYT    H4'    302     0.090000     1.0080   ; qtot -8.750
   303       ON6B     10      CYT    O4'    303    -0.500000    15.9994   ; qtot -9.250
   304       CN7B     10      CYT    C1'    304     0.160000    12.0110   ; qtot -9.090
   305        HN7     10      CYT    H1'    305     0.090000     1.0080   ; qtot -9.000
   306        NN2     10      CYT     N1    306    -0.130000    14.0070   ; qtot -9.130
   307        CN3     10      CYT     C6    307     0.050000    12.0110   ; qtot -9.080
   308        HN3     10      CYT     H6    308     0.170000     1.0080   ; qtot -8.910
   309        CN3     10      CYT     C5    309    -0.130000    12.0110   ; qtot -9.040
   310        HN3     10      CYT     H5    310     0.070000     1.0080   ; qtot -8.970
   311        CN1     10      CYT     C2    311     0.520000    12.0110   ; qtot -8.450
   312       ON1C     10      CYT     O2    312    -0.490000    15.9994   ; qtot -8.940
   313        NN3     10      CYT     N3    313    -0.660000    14.0070   ; qtot -9.600
   314        CN2     10      CYT     C4    314     0.650000    12.0110   ; qtot -8.950
   315        NN1     10      CYT     N4    315    -0.750000    14.0070   ; qtot -9.700
   316        HN1     10      CYT    H41    316     0.370000     1.0080   ; qtot -9.330
   317        HN1     10      CYT    H42    317     0.330000     1.0080   ; qtot -9.000
   318       CN7B     10      CYT    C2'    318     0.140000    12.0110   ; qtot -8.860
   319        HN7     10      CYT   H2''    319     0.090000     1.0080   ; qtot -8.770
   320        ON5     10      CYT    O2'    320    -0.660000    15.9994   ; qtot -9.430
   321        HN5     10      CYT    H2'    321     0.430000     1.0080   ; qtot -9.000
   322        CN7     10      CYT    C3'    322     0.140000    12.0110   ; qtot -8.860
   323        HN7     10      CYT    H3'    323     0.090000     1.0080   ; qtot -8.770
   324        ON5     10      CYT    O3'    324    -0.660000    15.9994   ; qtot -9.430
   325        HN5     10      CYT    H3T    325     0.430000     1.0080   ; qtot -9.000

[ bonds ]
; ai	aj	funct	b0	Kb
    1     2     1
    2     3     1
    3     4     1
    3     5     1
    3     6     1
    6     7     1
    6     8     1
    6    29     1
    8     9     1
    9    10     1
    9    11     1
    9    25     1
   11    14     1
   11    20     1
   12    13     1
   20    12     1
   21    12     1
   13    14     1
   14    15     1
   17    16     1
   16    21     1
   17    18     1
   17    19     1
   20    19     1
   21    22     1
   22    23     1
   22    24     1
   25    26     1
   25    27     1
   25    29     1
   27    28     1
   29    30     1
   29    31     1
   31    32     1
   32    33     1
   32    34     1
   32    35     1
   35    36     1
   36    37     1
   36    38     1
   36    39     1
   39    40     1
   39    41     1
   39    62     1
   41    42     1
   42    43     1
   42    44     1
   42    58     1
   44    47     1
   44    53     1
   45    46     1
   53    45     1
   54    45     1
   46    47     1
   47    48     1
   50    49     1
   49    54     1
   50    51     1
   50    52     1
   53    52     1
   54    55     1
   55    56     1
   55    57     1
   58    59     1
   58    60     1
   58    62     1
   60    61     1
   62    63     1
   62    64     1
   64    65     1
   65    66     1
   65    67     1
   65    68     1
   68    69     1
   69    70     1
   69    71     1
   69    72     1
   72    73     1
   72    74     1
   72    96     1
   74    75     1
   75    76     1
   75    77     1
   75    92     1
   77    78     1
   77    90     1
   78    82     1
   78    88     1
   79    80     1
   79    81     1
   83    79     1
   83    82     1
   83    84     1
   84    85     1
   84    86     1
   86    87     1
   86    88     1
   88    89     1
   89    90     1
   90    91     1
   92    93     1
   92    94     1
   92    96     1
   94    95     1
   96    97     1
   96    98     1
   98    99     1
   99   100     1
   99   101     1
   99   102     1
  102   103     1
  103   104     1
  103   105     1
  103   106     1
  106   107     1
  106   108     1
  106   130     1
  108   109     1
  109   110     1
  109   111     1
  109   126     1
  111   112     1
  111   124     1
  112   116     1
  112   122     1
  113   114     1
  113   115     1
  117   113     1
  117   116     1
  117   118     1
  118   119     1
  118   120     1
  120   121     1
  120   122     1
  122   123     1
  123   124     1
  124   125     1
  126   127     1
  126   128     1
  126   130     1
  128   129     1
  130   131     1
  130   132     1
  132   133     1
  133   134     1
  133   135     1
  133   136     1
  136   137     1
  137   138     1
  137   139     1
  137   140     1
  140   141     1
  140   142     1
  140   163     1
  142   143     1
  143   144     1
  143   145     1
  143   159     1
  145   148     1
  145   154     1
  146   147     1
  154   146     1
  155   146     1
  147   148     1
  148   149     1
  151   150     1
  150   155     1
  151   152     1
  151   153     1
  154   153     1
  155   156     1
  156   157     1
  156   158     1
  159   160     1
  159   161     1
  159   163     1
  161   162     1
  163   164     1
  163   165     1
  165   166     1
  166   167     1
  166   168     1
  166   169     1
  169   170     1
  170   171     1
  170   172     1
  170   173     1
  173   174     1
  173   175     1
  173   194     1
  175   176     1
  176   177     1
  176   178     1
  176   190     1
  178   179     1
  178   183     1
  179   180     1
  181   179     1
  181   182     1
  186   181     1
  183   184     1
  183   185     1
  185   186     1
  186   187     1
  187   188     1
  187   189     1
  190   191     1
  190   192     1
  190   194     1
  192   193     1
  194   195     1
  194   196     1
  196   197     1
  197   198     1
  197   199     1
  197   200     1
  200   201     1
  201   202     1
  201   203     1
  201   204     1
  204   205     1
  204   206     1
  204   224     1
  206   207     1
  207   208     1
  207   209     1
  207   220     1
  209   210     1
  209   212     1
  210   211     1
  218   210     1
  212   213     1
  212   214     1
  214   215     1
  214   216     1
  216   217     1
  216   218     1
  218   219     1
  220   221     1
  220   222     1
  220   224     1
  222   223     1
  224   225     1
  224   226     1
  226   227     1
  227   228     1
  227   229     1
  227   230     1
  230   231     1
  231   232     1
  231   233     1
  231   234     1
  234   235     1
  234   236     1
  234   257     1
  236   237     1
  237   238     1
  237   239     1
  237   253     1
  239   242     1
  239   248     1
  240   241     1
  248   240     1
  249   240     1
  241   242     1
  242   243     1
  245   244     1
  244   249     1
  245   246     1
  245   247     1
  248   247     1
  249   250     1
  250   251     1
  250   252     1
  253   254     1
  253   255     1
  253   257     1
  255   256     1
  257   258     1
  257   259     1
  259   260     1
  260   261     1
  260   262     1
  260   263     1
  263   264     1
  264   265     1
  264   266     1
  264   267     1
  267   268     1
  267   269     1
  267   291     1
  269   270     1
  270   271     1
  270   272     1
  270   287     1
  272   273     1
  272   285     1
  273   277     1
  273   283     1
  274   275     1
  274   276     1
  278   274     1
  278   277     1
  278   279     1
  279   280     1
  279   281     1
  281   282     1
  281   283     1
  283   284     1
  284   285     1
  285   286     1
  287   288     1
  287   289     1
  287   291     1
  289   290     1
  291   292     1
  291   293     1
  293   294     1
  294   295     1
  294   296     1
  294   297     1
  297   298     1
  298   299     1
  298   300     1
  298   301     1
  301   302     1
  301   303     1
  301   322     1
  303   304     1
  304   305     1
  304   306     1
  304   318     1
  306   307     1
  306   311     1
  307   308     1
  309   307     1
  309   310     1
  314   309     1
  311   312     1
  311   313     1
  313   314     1
  314   315     1
  315   316     1
  315   317     1
  318   319     1
  318   320     1
  318   322     1
  320   321     1
  322   323     1
  322   324     1
  324   325     1

[ pairs ]
; ai	aj	funct	c6	c12 or
; ai	aj	funct	fudgeQQ	q1	q2	c6	c12
    1     4     1
    1     5     1
    1     6     1
    2     7     1
    2     8     1
    2    29     1
    3     9     1
    3    25     1
    3    30     1
    3    31     1
    4     7     1
    4     8     1
    4    29     1
    5     7     1
    5     8     1
    5    29     1
    6    10     1
    6    11     1
    6    26     1
    6    27     1
    6    32     1
    7     9     1
    7    25     1
    7    30     1
    7    31     1
    8    14     1
    8    20     1
    8    26     1
    8    27     1
    8    30     1
    8    31     1
    9    12     1
    9    13     1
    9    15     1
    9    19     1
    9    28     1
    9    30     1
    9    31     1
   10    14     1
   10    20     1
   10    26     1
   10    27     1
   10    29     1
   11    17     1
   11    21     1
   11    26     1
   11    27     1
   11    29     1
   12    15     1
   12    17     1
   12    23     1
   12    24     1
   13    16     1
   13    19     1
   13    22     1
   14    19     1
   14    21     1
   14    25     1
   15    20     1
   16    20     1
   16    23     1
   16    24     1
   17    22     1
   18    20     1
   18    21     1
   19    21     1
   20    22     1
   20    25     1
   25    32     1
   26    28     1
   26    30     1
   26    31     1
   27    30     1
   27    31     1
   28    29     1
   29    33     1
   29    34     1
   29    35     1
   30    32     1
   31    36     1
   32    37     1
   32    38     1
   32    39     1
   33    36     1
   34    36     1
   35    40     1
   35    41     1
   35    62     1
   36    42     1
   36    58     1
   36    63     1
   36    64     1
   37    40     1
   37    41     1
   37    62     1
   38    40     1
   38    41     1
   38    62     1
   39    43     1
   39    44     1
   39    59     1
   39    60     1
   39    65     1
   40    42     1
   40    58     1
   40    63     1
   40    64     1
   41    47     1
   41    53     1
   41    59     1
   41    60     1
   41    63     1
   41    64     1
   42    45     1
   42    46     1
   42    48     1
   42    52     1
   42    61     1
   42    63     1
   42    64     1
   43    47     1
   43    53     1
   43    59     1
   43    60     1
   43    62     1
   44    50     1
   44    54     1
   44    59     1
   44    60     1
   44    62     1
   45    48     1
   45    50     1
   45    56     1
   45    57     1
   46    49     1
   46    52     1
   46    55     1
   47    52     1
   47    54     1
   47    58     1
   48    53     1
   49    53     1
   49    56     1
   49    57     1
   50    55     1
   51    53     1
   51    54     1
   52    54     1
   53    55     1
   53    58     1
   58    65     1
   59    61     1
   59    63     1
   59    64     1
   60    63     1
   60    64     1
   61    62     1
   62    66     1
   62    67     1
   62    68     1
   63    65     1
   64    69     1
   65    70     1
   65    71     1
   65    72     1
   66    69     1
   67    69     1
   68    73     1
   68    74     1
   68    96     1
   69    75     1
   69    92     1
   69    97     1
   69    98     1
   70    73     1
   70    74     1
   70    96     1
   71    73     1
   71    74     1
   71    96     1
   72    76     1
   72    77     1
   72    93     1
   72    94     1
   72    99     1
   73    75     1
   73    92     1
   73    97     1
   73    98     1
   74    78     1
   74    90     1
   74    93     1
   74    94     1
   74    97     1
   74    98     1
   75    82     1
   75    88     1
   75    89     1
   75    91     1
   75    95     1
   75    97     1
   75    98     1
   76    78     1
   76    90     1
   76    93     1
   76    94     1
   76    96     1
   77    83     1
   77    86     1
   77    93     1
   77    94     1
   77    96     1
   78    79     1
   78    84     1
   78    87     1
   78    91     1
   78    92     1
   79    85     1
   79    86     1
   80    82     1
   80    84     1
   81    82     1
   81    84     1
   82    85     1
   82    86     1
   82    89     1
   82    90     1
   83    87     1
   83    88     1
   84    89     1
   85    87     1
   85    88     1
   86    90     1
   87    89     1
   88    91     1
   90    92     1
   92    99     1
   93    95     1
   93    97     1
   93    98     1
   94    97     1
   94    98     1
   95    96     1
   96   100     1
   96   101     1
   96   102     1
   97    99     1
   98   103     1
   99   104     1
   99   105     1
   99   106     1
  100   103     1
  101   103     1
  102   107     1
  102   108     1
  102   130     1
  103   109     1
  103   126     1
  103   131     1
  103   132     1
  104   107     1
  104   108     1
  104   130     1
  105   107     1
  105   108     1
  105   130     1
  106   110     1
  106   111     1
  106   127     1
  106   128     1
  106   133     1
  107   109     1
  107   126     1
  107   131     1
  107   132     1
  108   112     1
  108   124     1
  108   127     1
  108   128     1
  108   131     1
  108   132     1
  109   116     1
  109   122     1
  109   123     1
  109   125     1
  109   129     1
  109   131     1
  109   132     1
  110   112     1
  110   124     1
  110   127     1
  110   128     1
  110   130     1
  111   117     1
  111   120     1
  111   127     1
  111   128     1
  111   130     1
  112   113     1
  112   118     1
  112   121     1
  112   125     1
  112   126     1
  113   119     1
  113   120     1
  114   116     1
  114   118     1
  115   116     1
  115   118     1
  116   119     1
  116   120     1
  116   123     1
  116   124     1
  117   121     1
  117   122     1
  118   123     1
  119   121     1
  119   122     1
  120   124     1
  121   123     1
  122   125     1
  124   126     1
  126   133     1
  127   129     1
  127   131     1
  127   132     1
  128   131     1
  128   132     1
  129   130     1
  130   134     1
  130   135     1
  130   136     1
  131   133     1
  132   137     1
  133   138     1
  133   139     1
  133   140     1
  134   137     1
  135   137     1
  136   141     1
  136   142     1
  136   163     1
  137   143     1
  137   159     1
  137   164     1
  137   165     1
  138   141     1
  138   142     1
  138   163     1
  139   141     1
  139   142     1
  139   163     1
  140   144     1
  140   145     1
  140   160     1
  140   161     1
  140   166     1
  141   143     1
  141   159     1
  141   164     1
  141   165     1
  142   148     1
  142   154     1
  142   160     1
  142   161     1
  142   164     1
  142   165     1
  143   146     1
  143   147     1
  143   149     1
  143   153     1
  143   162     1
  143   164     1
  143   165     1
  144   148     1
  144   154     1
  144   160     1
  144   161     1
  144   163     1
  145   151     1
  145   155     1
  145   160     1
  145   161     1
  145   163     1
  146   149     1
  146   151     1
  146   157     1
  146   158     1
  147   150     1
  147   153     1
  147   156     1
  148   153     1
  148   155     1
  148   159     1
  149   154     1
  150   154     1
  150   157     1
  150   158     1
  151   156     1
  152   154     1
  152   155     1
  153   155     1
  154   156     1
  154   159     1
  159   166     1
  160   162     1
  160   164     1
  160   165     1
  161   164     1
  161   165     1
  162   163     1
  163   167     1
  163   168     1
  163   169     1
  164   166     1
  165   170     1
  166   171     1
  166   172     1
  166   173     1
  167   170     1
  168   170     1
  169   174     1
  169   175     1
  169   194     1
  170   176     1
  170   190     1
  170   195     1
  170   196     1
  171   174     1
  171   175     1
  171   194     1
  172   174     1
  172   175     1
  172   194     1
  173   177     1
  173   178     1
  173   191     1
  173   192     1
  173   197     1
  174   176     1
  174   190     1
  174   195     1
  174   196     1
  175   179     1
  175   183     1
  175   191     1
  175   192     1
  175   195     1
  175   196     1
  176   180     1
  176   181     1
  176   184     1
  176   185     1
  176   193     1
  176   195     1
  176   196     1
  177   179     1
  177   183     1
  177   191     1
  177   192     1
  177   194     1
  178   182     1
  178   186     1
  178   191     1
  178   192     1
  178   194     1
  179   184     1
  179   185     1
  179   187     1
  179   190     1
  180   182     1
  180   183     1
  180   186     1
  181   183     1
  181   188     1
  181   189     1
  182   185     1
  182   187     1
  183   187     1
  183   190     1
  184   186     1
  185   188     1
  185   189     1
  190   197     1
  191   193     1
  191   195     1
  191   196     1
  192   195     1
  192   196     1
  193   194     1
  194   198     1
  194   199     1
  194   200     1
  195   197     1
  196   201     1
  197   202     1
  197   203     1
  197   204     1
  198   201     1
  199   201     1
  200   205     1
  200   206     1
  200   224     1
  201   207     1
  201   220     1
  201   225     1
  201   226     1
  202   205     1
  202   206     1
  202   224     1
  203   205     1
  203   206     1
  203   224     1
  204   208     1
  204   209     1
  204   221     1
  204   222     1
  204   227     1
  205   207     1
  205   220     1
  205   225     1
  205   226     1
  206   210     1
  206   212     1
  206   221     1
  206   222     1
  206   225     1
  206   226     1
  207   211     1
  207   213     1
  207   214     1
  207   218     1
  207   223     1
  207   225     1
  207   226     1
  208   210     1
  208   212     1
  208   221     1
  208   222     1
  208   224     1
  209   215     1
  209   216     1
  209   219     1
  209   221     1
  209   222     1
  209   224     1
  210   213     1
  210   214     1
  210   217     1
  210   220     1
  211   212     1
  211   216     1
  211   219     1
  212   217     1
  212   218     1
  212   220     1
  213   215     1
  213   216     1
  214   219     1
  215   217     1
  215   218     1
  217   219     1
  220   227     1
  221   223     1
  221   225     1
  221   226     1
  222   225     1
  222   226     1
  223   224     1
  224   228     1
  224   229     1
  224   230     1
  225   227     1
  226   231     1
  227   232     1
  227   233     1
  227   234     1
  228   231     1
  229   231     1
  230   235     1
  230   236     1
  230   257     1
  231   237     1
  231   253     1
  231   258     1
  231   259     1
  232   235     1
  232   236     1
  232   257     1
  233   235     1
  233   236     1
  233   257     1
  234   238     1
  234   239     1
  234   254     1
  234   255     1
  234   260     1
  235   237     1
  235   253     1
  235   258     1
  235   259     1
  236   242     1
  236   248     1
  236   254     1
  236   255     1
  236   258     1
  236   259     1
  237   240     1
  237   241     1
  237   243     1
  237   247     1
  237   256     1
  237   258     1
  237   259     1
  238   242     1
  238   248     1
  238   254     1
  238   255     1
  238   257     1
  239   245     1
  239   249     1
  239   254     1
  239   255     1
  239   257     1
  240   243     1
  240   245     1
  240   251     1
  240   252     1
  241   244     1
  241   247     1
  241   250     1
  242   247     1
  242   249     1
  242   253     1
  243   248     1
  244   248     1
  244   251     1
  244   252     1
  245   250     1
  246   248     1
  246   249     1
  247   249     1
  248   250     1
  248   253     1
  253   260     1
  254   256     1
  254   258     1
  254   259     1
  255   258     1
  255   259     1
  256   257     1
  257   261     1
  257   262     1
  257   263     1
  258   260     1
  259   264     1
  260   265     1
  260   266     1
  260   267     1
  261   264     1
  262   264     1
  263   268     1
  263   269     1
  263   291     1
  264   270     1
  264   287     1
  264   292     1
  264   293     1
  265   268     1
  265   269     1
  265   291     1
  266   268     1
  266   269     1
  266   291     1
  267   271     1
  267   272     1
  267   288     1
  267   289     1
  267   294     1
  268   270     1
  268   287     1
  268   292     1
  268   293     1
  269   273     1
  269   285     1
  269   288     1
  269   289     1
  269   292     1
  269   293     1
  270   277     1
  270   283     1
  270   284     1
  270   286     1
  270   290     1
  270   292     1
  270   293     1
  271   273     1
  271   285     1
  271   288     1
  271   289     1
  271   291     1
  272   278     1
  272   281     1
  272   288     1
  272   289     1
  272   291     1
  273   274     1
  273   279     1
  273   282     1
  273   286     1
  273   287     1
  274   280     1
  274   281     1
  275   277     1
  275   279     1
  276   277     1
  276   279     1
  277   280     1
  277   281     1
  277   284     1
  277   285     1
  278   282     1
  278   283     1
  279   284     1
  280   282     1
  280   283     1
  281   285     1
  282   284     1
  283   286     1
  285   287     1
  287   294     1
  288   290     1
  288   292     1
  288   293     1
  289   292     1
  289   293     1
  290   291     1
  291   295     1
  291   296     1
  291   297     1
  292   294     1
  293   298     1
  294   299     1
  294   300     1
  294   301     1
  295   298     1
  296   298     1
  297   302     1
  297   303     1
  297   322     1
  298   304     1
  298   318     1
  298   323     1
  298   324     1
  299   302     1
  299   303     1
  299   322     1
  300   302     1
  300   303     1
  300   322     1
  301   305     1
  301   306     1
  301   319     1
  301   320     1
  301   325     1
  302   304     1
  302   318     1
  302   323     1
  302   324     1
  303   307     1
  303   311     1
  303   319     1
  303   320     1
  303   323     1
  303   324     1
  304   308     1
  304   309     1
  304   312     1
  304   313     1
  304   321     1
  304   323     1
  304   324     1
  305   307     1
  305   311     1
  305   319     1
  305   320     1
  305   322     1
  306   310     1
  306   314     1
  306   319     1
  306   320     1
  306   322     1
  307   312     1
  307   313     1
  307   315     1
  307   318     1
  308   310     1
  308   311     1
  308   314     1
  309   311     1
  309   316     1
  309   317     1
  310   313     1
  310   315     1
  311   315     1
  311   318     1
  312   314     1
  313   316     1
  313   317     1
  318   325     1
  319   321     1
  319   323     1
  319   324     1
  320   323     1
  320   324     1
  321   322     1
  323   325     1

[ angles ] 
; ai	aj	ak	funct	th0	cth	S0	Kub
    1     2     3     5
    2     3     4     5
    2     3     5     5
    2     3     6     5
    4     3     5     5
    4     3     6     5
    5     3     6     5
    3     6     7     5
    3     6     8     5
    3     6    29     5
    7     6     8     5
    7     6    29     5
    8     6    29     5
    6     8     9     5
    8     9    10     5
    8     9    11     5
    8     9    25     5
   10     9    11     5
   10     9    25     5
   11     9    25     5
    9    11    14     5
    9    11    20     5
   14    11    20     5
   13    12    20     5
   13    12    21     5
   20    12    21     5
   12    13    14     5
   11    14    13     5
   11    14    15     5
   13    14    15     5
   17    16    21     5
   16    17    18     5
   16    17    19     5
   18    17    19     5
   17    19    20     5
   11    20    12     5
   11    20    19     5
   12    20    19     5
   12    21    16     5
   12    21    22     5
   16    21    22     5
   21    22    23     5
   21    22    24     5
   23    22    24     5
    9    25    26     5
    9    25    27     5
    9    25    29     5
   26    25    27     5
   26    25    29     5
   27    25    29     5
   25    27    28     5
    6    29    25     5
    6    29    30     5
    6    29    31     5
   25    29    30     5
   25    29    31     5
   30    29    31     5
   29    31    32     5
   31    32    33     5
   31    32    34     5
   31    32    35     5
   33    32    34     5
   33    32    35     5
   34    32    35     5
   32    35    36     5
   35    36    37     5
   35    36    38     5
   35    36    39     5
   37    36    38     5
   37    36    39     5
   38    36    39     5
   36    39    40     5
   36    39    41     5
   36    39    62     5
   40    39    41     5
   40    39    62     5
   41    39    62     5
   39    41    42     5
   41    42    43     5
   41    42    44     5
   41    42    58     5
   43    42    44     5
   43    42    58     5
   44    42    58     5
   42    44    47     5
   42    44    53     5
   47    44    53     5
   46    45    53     5
   46    45    54     5
   53    45    54     5
   45    46    47     5
   44    47    46     5
   44    47    48     5
   46    47    48     5
   50    49    54     5
   49    50    51     5
   49    50    52     5
   51    50    52     5
   50    52    53     5
   44    53    45     5
   44    53    52     5
   45    53    52     5
   45    54    49     5
   45    54    55     5
   49    54    55     5
   54    55    56     5
   54    55    57     5
   56    55    57     5
   42    58    59     5
   42    58    60     5
   42    58    62     5
   59    58    60     5
   59    58    62     5
   60    58    62     5
   58    60    61     5
   39    62    58     5
   39    62    63     5
   39    62    64     5
   58    62    63     5
   58    62    64     5
   63    62    64     5
   62    64    65     5
   64    65    66     5
   64    65    67     5
   64    65    68     5
   66    65    67     5
   66    65    68     5
   67    65    68     5
   65    68    69     5
   68    69    70     5
   68    69    71     5
   68    69    72     5
   70    69    71     5
   70    69    72     5
   71    69    72     5
   69    72    73     5
   69    72    74     5
   69    72    96     5
   73    72    74     5
   73    72    96     5
   74    72    96     5
   72    74    75     5
   74    75    76     5
   74    75    77     5
   74    75    92     5
   76    75    77     5
   76    75    92     5
   77    75    92     5
   75    77    78     5
   75    77    90     5
   78    77    90     5
   77    78    82     5
   77    78    88     5
   82    78    88     5
   80    79    81     5
   80    79    83     5
   81    79    83     5
   78    82    83     5
   79    83    82     5
   79    83    84     5
   82    83    84     5
   83    84    85     5
   83    84    86     5
   85    84    86     5
   84    86    87     5
   84    86    88     5
   87    86    88     5
   78    88    86     5
   78    88    89     5
   86    88    89     5
   88    89    90     5
   77    90    89     5
   77    90    91     5
   89    90    91     5
   75    92    93     5
   75    92    94     5
   75    92    96     5
   93    92    94     5
   93    92    96     5
   94    92    96     5
   92    94    95     5
   72    96    92     5
   72    96    97     5
   72    96    98     5
   92    96    97     5
   92    96    98     5
   97    96    98     5
   96    98    99     5
   98    99   100     5
   98    99   101     5
   98    99   102     5
  100    99   101     5
  100    99   102     5
  101    99   102     5
   99   102   103     5
  102   103   104     5
  102   103   105     5
  102   103   106     5
  104   103   105     5
  104   103   106     5
  105   103   106     5
  103   106   107     5
  103   106   108     5
  103   106   130     5
  107   106   108     5
  107   106   130     5
  108   106   130     5
  106   108   109     5
  108   109   110     5
  108   109   111     5
  108   109   126     5
  110   109   111     5
  110   109   126     5
  111   109   126     5
  109   111   112     5
  109   111   124     5
  112   111   124     5
  111   112   116     5
  111   112   122     5
  116   112   122     5
  114   113   115     5
  114   113   117     5
  115   113   117     5
  112   116   117     5
  113   117   116     5
  113   117   118     5
  116   117   118     5
  117   118   119     5
  117   118   120     5
  119   118   120     5
  118   120   121     5
  118   120   122     5
  121   120   122     5
  112   122   120     5
  112   122   123     5
  120   122   123     5
  122   123   124     5
  111   124   123     5
  111   124   125     5
  123   124   125     5
  109   126   127     5
  109   126   128     5
  109   126   130     5
  127   126   128     5
  127   126   130     5
  128   126   130     5
  126   128   129     5
  106   130   126     5
  106   130   131     5
  106   130   132     5
  126   130   131     5
  126   130   132     5
  131   130   132     5
  130   132   133     5
  132   133   134     5
  132   133   135     5
  132   133   136     5
  134   133   135     5
  134   133   136     5
  135   133   136     5
  133   136   137     5
  136   137   138     5
  136   137   139     5
  136   137   140     5
  138   137   139     5
  138   137   140     5
  139   137   140     5
  137   140   141     5
  137   140   142     5
  137   140   163     5
  141   140   142     5
  141   140   163     5
  142   140   163     5
  140   142   143     5
  142   143   144     5
  142   143   145     5
  142   143   159     5
  144   143   145     5
  144   143   159     5
  145   143   159     5
  143   145   148     5
  143   145   154     5
  148   145   154     5
  147   146   154     5
  147   146   155     5
  154   146   155     5
  146   147   148     5
  145   148   147     5
  145   148   149     5
  147   148   149     5
  151   150   155     5
  150   151   152     5
  150   151   153     5
  152   151   153     5
  151   153   154     5
  145   154   146     5
  145   154   153     5
  146   154   153     5
  146   155   150     5
  146   155   156     5
  150   155   156     5
  155   156   157     5
  155   156   158     5
  157   156   158     5
  143   159   160     5
  143   159   161     5
  143   159   163     5
  160   159   161     5
  160   159   163     5
  161   159   163     5
  159   161   162     5
  140   163   159     5
  140   163   164     5
  140   163   165     5
  159   163   164     5
  159   163   165     5
  164   163   165     5
  163   165   166     5
  165   166   167     5
  165   166   168     5
  165   166   169     5
  167   166   168     5
  167   166   169     5
  168   166   169     5
  166   169   170     5
  169   170   171     5
  169   170   172     5
  169   170   173     5
  171   170   172     5
  171   170   173     5
  172   170   173     5
  170   173   174     5
  170   173   175     5
  170   173   194     5
  174   173   175     5
  174   173   194     5
  175   173   194     5
  173   175   176     5
  175   176   177     5
  175   176   178     5
  175   176   190     5
  177   176   178     5
  177   176   190     5
  178   176   190     5
  176   178   179     5
  176   178   183     5
  179   178   183     5
  178   179   180     5
  178   179   181     5
  180   179   181     5
  179   181   182     5
  179   181   186     5
  182   181   186     5
  178   183   184     5
  178   183   185     5
  184   183   185     5
  183   185   186     5
  181   186   185     5
  181   186   187     5
  185   186   187     5
  186   187   188     5
  186   187   189     5
  188   187   189     5
  176   190   191     5
  176   190   192     5
  176   190   194     5
  191   190   192     5
  191   190   194     5
  192   190   194     5
  190   192   193     5
  173   194   190     5
  173   194   195     5
  173   194   196     5
  190   194   195     5
  190   194   196     5
  195   194   196     5
  194   196   197     5
  196   197   198     5
  196   197   199     5
  196   197   200     5
  198   197   199     5
  198   197   200     5
  199   197   200     5
  197   200   201     5
  200   201   202     5
  200   201   203     5
  200   201   204     5
  202   201   203     5
  202   201   204     5
  203   201   204     5
  201   204   205     5
  201   204   206     5
  201   204   224     5
  205   204   206     5
  205   204   224     5
  206   204   224     5
  204   206   207     5
  206   207   208     5
  206   207   209     5
  206   207   220     5
  208   207   209     5
  208   207   220     5
  209   207   220     5
  207   209   210     5
  207   209   212     5
  210   209   212     5
  209   210   211     5
  209   210   218     5
  211   210   218     5
  209   212   213     5
  209   212   214     5
  213   212   214     5
  212   214   215     5
  212   214   216     5
  215   214   216     5
  214   216   217     5
  214   216   218     5
  217   216   218     5
  210   218   216     5
  210   218   219     5
  216   218   219     5
  207   220   221     5
  207   220   222     5
  207   220   224     5
  221   220   222     5
  221   220   224     5
  222   220   224     5
  220   222   223     5
  204   224   220     5
  204   224   225     5
  204   224   226     5
  220   224   225     5
  220   224   226     5
  225   224   226     5
  224   226   227     5
  226   227   228     5
  226   227   229     5
  226   227   230     5
  228   227   229     5
  228   227   230     5
  229   227   230     5
  227   230   231     5
  230   231   232     5
  230   231   233     5
  230   231   234     5
  232   231   233     5
  232   231   234     5
  233   231   234     5
  231   234   235     5
  231   234   236     5
  231   234   257     5
  235   234   236     5
  235   234   257     5
  236   234   257     5
  234   236   237     5
  236   237   238     5
  236   237   239     5
  236   237   253     5
  238   237   239     5
  238   237   253     5
  239   237   253     5
  237   239   242     5
  237   239   248     5
  242   239   248     5
  241   240   248     5
  241   240   249     5
  248   240   249     5
  240   241   242     5
  239   242   241     5
  239   242   243     5
  241   242   243     5
  245   244   249     5
  244   245   246     5
  244   245   247     5
  246   245   247     5
  245   247   248     5
  239   248   240     5
  239   248   247     5
  240   248   247     5
  240   249   244     5
  240   249   250     5
  244   249   250     5
  249   250   251     5
  249   250   252     5
  251   250   252     5
  237   253   254     5
  237   253   255     5
  237   253   257     5
  254   253   255     5
  254   253   257     5
  255   253   257     5
  253   255   256     5
  234   257   253     5
  234   257   258     5
  234   257   259     5
  253   257   258     5
  253   257   259     5
  258   257   259     5
  257   259   260     5
  259   260   261     5
  259   260   262     5
  259   260   263     5
  261   260   262     5
  261   260   263     5
  262   260   263     5
  260   263   264     5
  263   264   265     5
  263   264   266     5
  263   264   267     5
  265   264   266     5
  265   264   267     5
  266   264   267     5
  264   267   268     5
  264   267   269     5
  264   267   291     5
  268   267   269     5
  268   267   291     5
  269   267   291     5
  267   269   270     5
  269   270   271     5
  269   270   272     5
  269   270   287     5
  271   270   272     5
  271   270   287     5
  272   270   287     5
  270   272   273     5
  270   272   285     5
  273   272   285     5
  272   273   277     5
  272   273   283     5
  277   273   283     5
  275   274   276     5
  275   274   278     5
  276   274   278     5
  273   277   278     5
  274   278   277     5
  274   278   279     5
  277   278   279     5
  278   279   280     5
  278   279   281     5
  280   279   281     5
  279   281   282     5
  279   281   283     5
  282   281   283     5
  273   283   281     5
  273   283   284     5
  281   283   284     5
  283   284   285     5
  272   285   284     5
  272   285   286     5
  284   285   286     5
  270   287   288     5
  270   287   289     5
  270   287   291     5
  288   287   289     5
  288   287   291     5
  289   287   291     5
  287   289   290     5
  267   291   287     5
  267   291   292     5
  267   291   293     5
  287   291   292     5
  287   291   293     5
  292   291   293     5
  291   293   294     5
  293   294   295     5
  293   294   296     5
  293   294   297     5
  295   294   296     5
  295   294   297     5
  296   294   297     5
  294   297   298     5
  297   298   299     5
  297   298   300     5
  297   298   301     5
  299   298   300     5
  299   298   301     5
  300   298   301     5
  298   301   302     5
  298   301   303     5
  298   301   322     5
  302   301   303     5
  302   301   322     5
  303   301   322     5
  301   303   304     5
  303   304   305     5
  303   304   306     5
  303   304   318     5
  305   304   306     5
  305   304   318     5
  306   304   318     5
  304   306   307     5
  304   306   311     5
  307   306   311     5
  306   307   308     5
  306   307   309     5
  308   307   309     5
  307   309   310     5
  307   309   314     5
  310   309   314     5
  306   311   312     5
  306   311   313     5
  312   311   313     5
  311   313   314     5
  309   314   313     5
  309   314   315     5
  313   314   315     5
  314   315   316     5
  314   315   317     5
  316   315   317     5
  304   318   319     5
  304   318   320     5
  304   318   322     5
  319   318   320     5
  319   318   322     5
  320   318   322     5
  318   320   321     5
  301   322   318     5
  301   322   323     5
  301   322   324     5
  318   322   323     5
  318   322   324     5
  323   322   324     5
  322   324   325     5

[ dihedrals ]
; ai	aj	ak	al	funct	phi0	cp	mult
    1     2     3     4     9
    1     2     3     5     9
    1     2     3     6     9
    2     3     6     7     9
    2     3     6     8     9
    2     3     6    29     9
    4     3     6     7     9
    4     3     6     8     9
    4     3     6    29     9
    5     3     6     7     9
    5     3     6     8     9
    5     3     6    29     9
    3     6     8     9     9
    7     6     8     9     9
    3     6    29    25     9
    3     6    29    30     9
    3     6    29    31     9
    7     6    29    25     9
    7     6    29    30     9
    7     6    29    31     9
    8     6    29    25     9
    8     6    29    30     9
    8     6    29    31     9
    9     8     6    29     9
    6     8     9    10     9
    6     8     9    11     9
    6     8     9    25     9
    8     9    11    14     9
    8     9    11    20     9
   10     9    11    14     9
   10     9    11    20     9
    8     9    25    26     9
    8     9    25    27     9
    8     9    25    29     9
   10     9    25    26     9
   10     9    25    27     9
   10     9    25    29     9
   11     9    25    26     9
   11     9    25    27     9
   11     9    25    29     9
   14    11     9    25     9
   20    11     9    25     9
    9    11    14    13     9
    9    11    14    15     9
    9    11    20    12     9
    9    11    20    19     9
   14    11    20    19     9
   13    12    20    19     9
   13    12    21    16     9
   13    12    21    22     9
   20    12    21    22     9
   14    13    12    20     9
   14    13    12    21     9
   12    13    14    15     9
   13    14    11    20     9
   15    14    11    20     9
   11    14    13    12     9
   17    16    21    22     9
   18    17    16    21     9
   19    17    16    21     9
   16    17    19    20     9
   18    17    19    20     9
   12    20    11    14     9
   11    20    12    13     9
   11    20    12    21     9
   19    20    12    21     9
   11    20    19    17     9
   12    20    19    17     9
   16    21    12    20     9
   12    21    16    17     9
   12    21    22    23     9
   12    21    22    24     9
   16    21    22    23     9
   16    21    22    24     9
    9    25    27    28     9
   26    25    27    28     9
    9    25    29    30     9
    9    25    29    31     9
   26    25    29    30     9
   26    25    29    31     9
   27    25    29    30     9
   27    25    29    31     9
   28    27    25    29     9
    6    29    25     9     9
    6    29    25    26     9
    6    29    25    27     9
    6    29    31    32     9
   25    29    31    32     9
   30    29    31    32     9
   29    31    32    33     9
   29    31    32    34     9
   29    31    32    35     9
   31    32    35    36     9
   33    32    35    36     9
   34    32    35    36     9
   32    35    36    37     9
   32    35    36    38     9
   32    35    36    39     9
   35    36    39    40     9
   35    36    39    41     9
   35    36    39    62     9
   37    36    39    40     9
   37    36    39    41     9
   37    36    39    62     9
   38    36    39    40     9
   38    36    39    41     9
   38    36    39    62     9
   36    39    41    42     9
   40    39    41    42     9
   36    39    62    58     9
   36    39    62    63     9
   36    39    62    64     9
   40    39    62    58     9
   40    39    62    63     9
   40    39    62    64     9
   41    39    62    58     9
   41    39    62    63     9
   41    39    62    64     9
   42    41    39    62     9
   39    41    42    43     9
   39    41    42    44     9
   39    41    42    58     9
   41    42    44    47     9
   41    42    44    53     9
   43    42    44    47     9
   43    42    44    53     9
   41    42    58    59     9
   41    42    58    60     9
   41    42    58    62     9
   43    42    58    59     9
   43    42    58    60     9
   43    42    58    62     9
   44    42    58    59     9
   44    42    58    60     9
   44    42    58    62     9
   47    44    42    58     9
   53    44    42    58     9
   42    44    47    46     9
   42    44    47    48     9
   42    44    53    45     9
   42    44    53    52     9
   47    44    53    52     9
   46    45    53    52     9
   46    45    54    49     9
   46    45    54    55     9
   53    45    54    55     9
   47    46    45    53     9
   47    46    45    54     9
   45    46    47    48     9
   46    47    44    53     9
   48    47    44    53     9
   44    47    46    45     9
   50    49    54    55     9
   51    50    49    54     9
   52    50    49    54     9
   49    50    52    53     9
   51    50    52    53     9
   45    53    44    47     9
   44    53    45    46     9
   44    53    45    54     9
   52    53    45    54     9
   44    53    52    50     9
   45    53    52    50     9
   49    54    45    53     9
   45    54    49    50     9
   45    54    55    56     9
   45    54    55    57     9
   49    54    55    56     9
   49    54    55    57     9
   42    58    60    61     9
   59    58    60    61     9
   42    58    62    63     9
   42    58    62    64     9
   59    58    62    63     9
   59    58    62    64     9
   60    58    62    63     9
   60    58    62    64     9
   61    60    58    62     9
   39    62    58    42     9
   39    62    58    59     9
   39    62    58    60     9
   39    62    64    65     9
   58    62    64    65     9
   63    62    64    65     9
   62    64    65    66     9
   62    64    65    67     9
   62    64    65    68     9
   64    65    68    69     9
   66    65    68    69     9
   67    65    68    69     9
   65    68    69    70     9
   65    68    69    71     9
   65    68    69    72     9
   68    69    72    73     9
   68    69    72    74     9
   68    69    72    96     9
   70    69    72    73     9
   70    69    72    74     9
   70    69    72    96     9
   71    69    72    73     9
   71    69    72    74     9
   71    69    72    96     9
   69    72    74    75     9
   73    72    74    75     9
   69    72    96    92     9
   69    72    96    97     9
   69    72    96    98     9
   73    72    96    92     9
   73    72    96    97     9
   73    72    96    98     9
   74    72    96    92     9
   74    72    96    97     9
   74    72    96    98     9
   75    74    72    96     9
   72    74    75    76     9
   72    74    75    77     9
   72    74    75    92     9
   74    75    77    78     9
   74    75    77    90     9
   76    75    77    78     9
   76    75    77    90     9
   74    75    92    93     9
   74    75    92    94     9
   74    75    92    96     9
   76    75    92    93     9
   76    75    92    94     9
   76    75    92    96     9
   77    75    92    93     9
   77    75    92    94     9
   77    75    92    96     9
   78    77    75    92     9
   90    77    75    92     9
   75    77    78    82     9
   75    77    78    88     9
   75    77    90    89     9
   75    77    90    91     9
   78    77    90    89     9
   78    77    90    91     9
   82    78    77    90     9
   88    78    77    90     9
   77    78    82    83     9
   77    78    88    86     9
   77    78    88    89     9
   82    78    88    86     9
   82    78    88    89     9
   80    79    83    82     9
   80    79    83    84     9
   81    79    83    82     9
   81    79    83    84     9
   83    82    78    88     9
   78    82    83    79     9
   78    82    83    84     9
   79    83    84    85     9
   79    83    84    86     9
   82    83    84    85     9
   82    83    84    86     9
   83    84    86    87     9
   83    84    86    88     9
   85    84    86    87     9
   85    84    86    88     9
   84    86    88    89     9
   87    86    88    89     9
   78    88    86    84     9
   78    88    86    87     9
   78    88    89    90     9
   86    88    89    90     9
   88    89    90    91     9
   77    90    89    88     9
   75    92    94    95     9
   93    92    94    95     9
   75    92    96    97     9
   75    92    96    98     9
   93    92    96    97     9
   93    92    96    98     9
   94    92    96    97     9
   94    92    96    98     9
   95    94    92    96     9
   72    96    92    75     9
   72    96    92    93     9
   72    96    92    94     9
   72    96    98    99     9
   92    96    98    99     9
   97    96    98    99     9
   96    98    99   100     9
   96    98    99   101     9
   96    98    99   102     9
   98    99   102   103     9
  100    99   102   103     9
  101    99   102   103     9
   99   102   103   104     9
   99   102   103   105     9
   99   102   103   106     9
  102   103   106   107     9
  102   103   106   108     9
  102   103   106   130     9
  104   103   106   107     9
  104   103   106   108     9
  104   103   106   130     9
  105   103   106   107     9
  105   103   106   108     9
  105   103   106   130     9
  103   106   108   109     9
  107   106   108   109     9
  103   106   130   126     9
  103   106   130   131     9
  103   106   130   132     9
  107   106   130   126     9
  107   106   130   131     9
  107   106   130   132     9
  108   106   130   126     9
  108   106   130   131     9
  108   106   130   132     9
  109   108   106   130     9
  106   108   109   110     9
  106   108   109   111     9
  106   108   109   126     9
  108   109   111   112     9
  108   109   111   124     9
  110   109   111   112     9
  110   109   111   124     9
  108   109   126   127     9
  108   109   126   128     9
  108   109   126   130     9
  110   109   126   127     9
  110   109   126   128     9
  110   109   126   130     9
  111   109   126   127     9
  111   109   126   128     9
  111   109   126   130     9
  112   111   109   126     9
  124   111   109   126     9
  109   111   112   116     9
  109   111   112   122     9
  109   111   124   123     9
  109   111   124   125     9
  112   111   124   123     9
  112   111   124   125     9
  116   112   111   124     9
  122   112   111   124     9
  111   112   116   117     9
  111   112   122   120     9
  111   112   122   123     9
  116   112   122   120     9
  116   112   122   123     9
  114   113   117   116     9
  114   113   117   118     9
  115   113   117   116     9
  115   113   117   118     9
  117   116   112   122     9
  112   116   117   113     9
  112   116   117   118     9
  113   117   118   119     9
  113   117   118   120     9
  116   117   118   119     9
  116   117   118   120     9
  117   118   120   121     9
  117   118   120   122     9
  119   118   120   121     9
  119   118   120   122     9
  118   120   122   123     9
  121   120   122   123     9
  112   122   120   118     9
  112   122   120   121     9
  112   122   123   124     9
  120   122   123   124     9
  122   123   124   125     9
  111   124   123   122     9
  109   126   128   129     9
  127   126   128   129     9
  109   126   130   131     9
  109   126   130   132     9
  127   126   130   131     9
  127   126   130   132     9
  128   126   130   131     9
  128   126   130   132     9
  129   128   126   130     9
  106   130   126   109     9
  106   130   126   127     9
  106   130   126   128     9
  106   130   132   133     9
  126   130   132   133     9
  131   130   132   133     9
  130   132   133   134     9
  130   132   133   135     9
  130   132   133   136     9
  132   133   136   137     9
  134   133   136   137     9
  135   133   136   137     9
  133   136   137   138     9
  133   136   137   139     9
  133   136   137   140     9
  136   137   140   141     9
  136   137   140   142     9
  136   137   140   163     9
  138   137   140   141     9
  138   137   140   142     9
  138   137   140   163     9
  139   137   140   141     9
  139   137   140   142     9
  139   137   140   163     9
  137   140   142   143     9
  141   140   142   143     9
  137   140   163   159     9
  137   140   163   164     9
  137   140   163   165     9
  141   140   163   159     9
  141   140   163   164     9
  141   140   163   165     9
  142   140   163   159     9
  142   140   163   164     9
  142   140   163   165     9
  143   142   140   163     9
  140   142   143   144     9
  140   142   143   145     9
  140   142   143   159     9
  142   143   145   148     9
  142   143   145   154     9
  144   143   145   148     9
  144   143   145   154     9
  142   143   159   160     9
  142   143   159   161     9
  142   143   159   163     9
  144   143   159   160     9
  144   143   159   161     9
  144   143   159   163     9
  145   143   159   160     9
  145   143   159   161     9
  145   143   159   163     9
  148   145   143   159     9
  154   145   143   159     9
  143   145   148   147     9
  143   145   148   149     9
  143   145   154   146     9
  143   145   154   153     9
  148   145   154   153     9
  147   146   154   153     9
  147   146   155   150     9
  147   146   155   156     9
  154   146   155   156     9
  148   147   146   154     9
  148   147   146   155     9
  146   147   148   149     9
  147   148   145   154     9
  149   148   145   154     9
  145   148   147   146     9
  151   150   155   156     9
  152   151   150   155     9
  153   151   150   155     9
  150   151   153   154     9
  152   151   153   154     9
  146   154   145   148     9
  145   154   146   147     9
  145   154   146   155     9
  153   154   146   155     9
  145   154   153   151     9
  146   154   153   151     9
  150   155   146   154     9
  146   155   150   151     9
  146   155   156   157     9
  146   155   156   158     9
  150   155   156   157     9
  150   155   156   158     9
  143   159   161   162     9
  160   159   161   162     9
  143   159   163   164     9
  143   159   163   165     9
  160   159   163   164     9
  160   159   163   165     9
  161   159   163   164     9
  161   159   163   165     9
  162   161   159   163     9
  140   163   159   143     9
  140   163   159   160     9
  140   163   159   161     9
  140   163   165   166     9
  159   163   165   166     9
  164   163   165   166     9
  163   165   166   167     9
  163   165   166   168     9
  163   165   166   169     9
  165   166   169   170     9
  167   166   169   170     9
  168   166   169   170     9
  166   169   170   171     9
  166   169   170   172     9
  166   169   170   173     9
  169   170   173   174     9
  169   170   173   175     9
  169   170   173   194     9
  171   170   173   174     9
  171   170   173   175     9
  171   170   173   194     9
  172   170   173   174     9
  172   170   173   175     9
  172   170   173   194     9
  170   173   175   176     9
  174   173   175   176     9
  170   173   194   190     9
  170   173   194   195     9
  170   173   194   196     9
  174   173   194   190     9
  174   173   194   195     9
  174   173   194   196     9
  175   173   194   190     9
  175   173   194   195     9
  175   173   194   196     9
  176   175   173   194     9
  173   175   176   177     9
  173   175   176   178     9
  173   175   176   190     9
  175   176   178   179     9
  175   176   178   183     9
  177   176   178   179     9
  177   176   178   183     9
  175   176   190   191     9
  175   176   190   192     9
  175   176   190   194     9
  177   176   190   191     9
  177   176   190   192     9
  177   176   190   194     9
  178   176   190   191     9
  178   176   190   192     9
  178   176   190   194     9
  179   178   176   190     9
  183   178   176   190     9
  176   178   179   180     9
  176   178   179   181     9
  176   178   183   184     9
  176   178   183   185     9
  179   178   183   184     9
  179   178   183   185     9
  180   179   178   183     9
  181   179   178   183     9
  178   179   181   182     9
  178   179   181   186     9
  180   179   181   182     9
  180   179   181   186     9
  179   181   186   185     9
  179   181   186   187     9
  182   181   186   185     9
  182   181   186   187     9
  178   183   185   186     9
  184   183   185   186     9
  183   185   186   187     9
  181   186   185   183     9
  181   186   187   188     9
  181   186   187   189     9
  185   186   187   188     9
  185   186   187   189     9
  176   190   192   193     9
  191   190   192   193     9
  176   190   194   195     9
  176   190   194   196     9
  191   190   194   195     9
  191   190   194   196     9
  192   190   194   195     9
  192   190   194   196     9
  193   192   190   194     9
  173   194   190   176     9
  173   194   190   191     9
  173   194   190   192     9
  173   194   196   197     9
  190   194   196   197     9
  195   194   196   197     9
  194   196   197   198     9
  194   196   197   199     9
  194   196   197   200     9
  196   197   200   201     9
  198   197   200   201     9
  199   197   200   201     9
  197   200   201   202     9
  197   200   201   203     9
  197   200   201   204     9
  200   201   204   205     9
  200   201   204   206     9
  200   201   204   224     9
  202   201   204   205     9
  202   201   204   206     9
  202   201   204   224     9
  203   201   204   205     9
  203   201   204   206     9
  203   201   204   224     9
  201   204   206   207     9
  205   204   206   207     9
  201   204   224   220     9
  201   204   224   225     9
  201   204   224   226     9
  205   204   224   220     9
  205   204   224   225     9
  205   204   224   226     9
  206   204   224   220     9
  206   204   224   225     9
  206   204   224   226     9
  207   206   204   224     9
  204   206   207   208     9
  204   206   207   209     9
  204   206   207   220     9
  206   207   209   210     9
  206   207   209   212     9
  208   207   209   210     9
  208   207   209   212     9
  206   207   220   221     9
  206   207   220   222     9
  206   207   220   224     9
  208   207   220   221     9
  208   207   220   222     9
  208   207   220   224     9
  209   207   220   221     9
  209   207   220   222     9
  209   207   220   224     9
  210   209   207   220     9
  212   209   207   220     9
  207   209   210   211     9
  207   209   210   218     9
  212   209   210   218     9
  207   209   212   213     9
  207   209   212   214     9
  210   209   212   213     9
  210   209   212   214     9
  211   210   209   212     9
  209   210   218   216     9
  209   210   218   219     9
  211   210   218   216     9
  211   210   218   219     9
  209   212   214   215     9
  209   212   214   216     9
  213   212   214   215     9
  213   212   214   216     9
  212   214   216   217     9
  212   214   216   218     9
  215   214   216   217     9
  215   214   216   218     9
  214   216   218   219     9
  217   216   218   219     9
  210   218   216   214     9
  210   218   216   217     9
  207   220   222   223     9
  221   220   222   223     9
  207   220   224   225     9
  207   220   224   226     9
  221   220   224   225     9
  221   220   224   226     9
  222   220   224   225     9
  222   220   224   226     9
  223   222   220   224     9
  204   224   220   207     9
  204   224   220   221     9
  204   224   220   222     9
  204   224   226   227     9
  220   224   226   227     9
  225   224   226   227     9
  224   226   227   228     9
  224   226   227   229     9
  224   226   227   230     9
  226   227   230   231     9
  228   227   230   231     9
  229   227   230   231     9
  227   230   231   232     9
  227   230   231   233     9
  227   230   231   234     9
  230   231   234   235     9
  230   231   234   236     9
  230   231   234   257     9
  232   231   234   235     9
  232   231   234   236     9
  232   231   234   257     9
  233   231   234   235     9
  233   231   234   236     9
  233   231   234   257     9
  231   234   236   237     9
  235   234   236   237     9
  231   234   257   253     9
  231   234   257   258     9
  231   234   257   259     9
  235   234   257   253     9
  235   234   257   258     9
  235   234   257   259     9
  236   234   257   253     9
  236   234   257   258     9
  236   234   257   259     9
  237   236   234   257     9
  234   236   237   238     9
  234   236   237   239     9
  234   236   237   253     9
  236   237   239   242     9
  236   237   239   248     9
  238   237   239   242     9
  238   237   239   248     9
  236   237   253   254     9
  236   237   253   255     9
  236   237   253   257     9
  238   237   253   254     9
  238   237   253   255     9
  238   237   253   257     9
  239   237   253   254     9
  239   237   253   255     9
  239   237   253   257     9
  242   239   237   253     9
  248   239   237   253     9
  237   239   242   241     9
  237   239   242   243     9
  237   239   248   240     9
  237   239   248   247     9
  242   239   248   247     9
  241   240   248   247     9
  241   240   249   244     9
  241   240   249   250     9
  248   240   249   250     9
  242   241   240   248     9
  242   241   240   249     9
  240   241   242   243     9
  241   242   239   248     9
  243   242   239   248     9
  239   242   241   240     9
  245   244   249   250     9
  246   245   244   249     9
  247   245   244   249     9
  244   245   247   248     9
  246   245   247   248     9
  240   248   239   242     9
  239   248   240   241     9
  239   248   240   249     9
  247   248   240   249     9
  239   248   247   245     9
  240   248   247   245     9
  244   249   240   248     9
  240   249   244   245     9
  240   249   250   251     9
  240   249   250   252     9
  244   249   250   251     9
  244   249   250   252     9
  237   253   255   256     9
  254   253   255   256     9
  237   253   257   258     9
  237   253   257   259     9
  254   253   257   258     9
  254   253   257   259     9
  255   253   257   258     9
  255   253   257   259     9
  256   255   253   257     9
  234   257   253   237     9
  234   257   253   254     9
  234   257   253   255     9
  234   257   259   260     9
  253   257   259   260     9
  258   257   259   260     9
  257   259   260   261     9
  257   259   260   262     9
  257   259   260   263     9
  259   260   263   264     9
  261   260   263   264     9
  262   260   263   264     9
  260   263   264   265     9
  260   263   264   266     9
  260   263   264   267     9
  263   264   267   268     9
  263   264   267   269     9
  263   264   267   291     9
  265   264   267   268     9
  265   264   267   269     9
  265   264   267   291     9
  266   264   267   268     9
  266   264   267   269     9
  266   264   267   291     9
  264   267   269   270     9
  268   267   269   270     9
  264   267   291   287     9
  264   267   291   292     9
  264   267   291   293     9
  268   267   291   287     9
  268   267   291   292     9
  268   267   291   293     9
  269   267   291   287     9
  269   267   291   292     9
  269   267   291   293     9
  270   269   267   291     9
  267   269   270   271     9
  267   269   270   272     9
  267   269   270   287     9
  269   270   272   273     9
  269   270   272   285     9
  271   270   272   273     9
  271   270   272   285     9
  269   270   287   288     9
  269   270   287   289     9
  269   270   287   291     9
  271   270   287   288     9
  271   270   287   289     9
  271   270   287   291     9
  272   270   287   288     9
  272   270   287   289     9
  272   270   287   291     9
  273   272   270   287     9
  285   272   270   287     9
  270   272   273   277     9
  270   272   273   283     9
  270   272   285   284     9
  270   272   285   286     9
  273   272   285   284     9
  273   272   285   286     9
  277   273   272   285     9
  283   273   272   285     9
  272   273   277   278     9
  272   273   283   281     9
  272   273   283   284     9
  277   273   283   281     9
  277   273   283   284     9
  275   274   278   277     9
  275   274   278   279     9
  276   274   278   277     9
  276   274   278   279     9
  278   277   273   283     9
  273   277   278   274     9
  273   277   278   279     9
  274   278   279   280     9
  274   278   279   281     9
  277   278   279   280     9
  277   278   279   281     9
  278   279   281   282     9
  278   279   281   283     9
  280   279   281   282     9
  280   279   281   283     9
  279   281   283   284     9
  282   281   283   284     9
  273   283   281   279     9
  273   283   281   282     9
  273   283   284   285     9
  281   283   284   285     9
  283   284   285   286     9
  272   285   284   283     9
  270   287   289   290     9
  288   287   289   290     9
  270   287   291   292     9
  270   287   291   293     9
  288   287   291   292     9
  288   287   291   293     9
  289   287   291   292     9
  289   287   291   293     9
  290   289   287   291     9
  267   291   287   270     9
  267   291   287   288     9
  267   291   287   289     9
  267   291   293   294     9
  287   291   293   294     9
  292   291   293   294     9
  291   293   294   295     9
  291   293   294   296     9
  291   293   294   297     9
  293   294   297   298     9
  295   294   297   298     9
  296   294   297   298     9
  294   297   298   299     9
  294   297   298   300     9
  294   297   298   301     9
  297   298   301   302     9
  297   298   301   303     9
  297   298   301   322     9
  299   298   301   302     9
  299   298   301   303     9
  299   298   301   322     9
  300   298   301   302     9
  300   298   301   303     9
  300   298   301   322     9
  298   301   303   304     9
  302   301   303   304     9
  298   301   322   318     9
  298   301   322   323     9
  298   301   322   324     9
  302   301   322   318     9
  302   301   322   323     9
  302   301   322   324     9
  303   301   322   318     9
  303   301   322   323     9
  303   301   322   324     9
  304   303   301   322     9
  301   303   304   305     9
  301   303   304   306     9
  301   303   304   318     9
  303   304   306   307     9
  303   304   306   311     9
  305   304   306   307     9
  305   304   306   311     9
  303   304   318   319     9
  303   304   318   320     9
  303   304   318   322     9
  305   304   318   319     9
  305   304   318   320     9
  305   304   318   322     9
  306   304   318   319     9
  306   304   318   320     9
  306   304   318   322     9
  307   306   304   318     9
  311   306   304   318     9
  304   306   307   308     9
  304   306   307   309     9
  304   306   311   312     9
  304   306   311   313     9
  307   306   311   312     9
  307   306   311   313     9
  308   307   306   311     9
  309   307   306   311     9
  306   307   309   310     9
  306   307   309   314     9
  308   307   309   310     9
  308   307   309   314     9
  307   309   314   313     9
  307   309   314   315     9
  310   309   314   313     9
  310   309   314   315     9
  306   311   313   314     9
  312   311   313   314     9
  311   313   314   315     9
  309   314   313   311     9
  309   314   315   316     9
  309   314   315   317     9
  313   314   315   316     9
  313   314   315   317     9
  304   318   320   321     9
  319   318   320   321     9
  304   318   322   323     9
  304   318   322   324     9
  319   318   322   323     9
  319   318   322   324     9
  320   318   322   323     9
  320   318   322   324     9
  321   320   318   322     9
  301   322   318   304     9
  301   322   318   319     9
  301   322   318   320     9
  301   322   324   325     9
  318   322   324   325     9
  323   322   324   325     9

[ dihedrals ]
; ai	aj	ak	al	funct	q0	cq
   21    16    12    22     2
   22    21    23    24     2
   54    49    45    55     2
   55    54    56    57     2
   79    80    83    81     2
   83    82    84    79     2
   86    84    88    87     2
  113   114   117   115     2
  117   116   118   113     2
  120   118   122   121     2
  155   150   146   156     2
  156   155   157   158     2
  183   178   185   184     2
  186   185   181   187     2
  187   186   188   189     2
  212   209   214   213     2
  216   214   218   217     2
  249   244   240   250     2
  250   249   251   252     2
  274   275   278   276     2
  278   277   279   274     2
  281   279   283   282     2
  311   306   313   312     2
  314   313   309   315     2
  315   314   316   317     2

#ifdef POSRES
[ position_restraints ]
    2     1    POSRES_FC_BB    POSRES_FC_BB    POSRES_FC_BB   
    3     1    POSRES_FC_BB    POSRES_FC_BB    POSRES_FC_BB   
    6     1    POSRES_FC_BB    POSRES_FC_BB    POSRES_FC_BB   
    8     1    POSRES_FC_SC    POSRES_FC_SC    POSRES_FC_SC   
    9     1    POSRES_FC_SC    POSRES_FC_SC    POSRES_FC_SC   
   11     1    POSRES_FC_SC    POSRES_FC_SC    POSRES_FC_SC   
   12     1    POSRES_FC_SC    POSRES_FC_SC    POSRES_FC_SC   
   13     1    POSRES_FC_SC    POSRES_FC_SC    POSRES_FC_SC   
   14     1    POSRES_FC_SC    POSRES_FC_SC    POSRES_FC_SC   
   16     1    POSRES_FC_SC    POSRES_FC_SC    POSRES_FC_SC   
   17     1    POSRES_FC_SC    POSRES_FC_SC    POSRES_FC_SC   
   19     1    POSRES_FC_SC    POSRES_FC_SC    POSRES_FC_SC   
   20     1    POSRES_FC_SC    POSRES_FC_SC    POSRES_FC_SC   
   21     1    POSRES_FC_SC    POSRES_FC_SC    POSRES_FC_SC   
   22     1    POSRES_FC_SC    POSRES_FC_SC    POSRES_FC_SC   
   25     1    POSRES_FC_SC    POSRES_FC_SC    POSRES_FC_SC   
   27     1    POSRES_FC_SC    POSRES_FC_SC    POSRES_FC_SC   
   29     1    POSRES_FC_BB    POSRES_FC_BB    POSRES_FC_BB   
   31     1    POSRES_FC_BB    POSRES_FC_BB    POSRES_FC_BB   
   32     1    POSRES_FC_BB    POSRES_FC_BB    POSRES_FC_BB   
   33     1    POSRES_FC_BB    POSRES_FC_BB    POSRES_FC_BB   
   34     1    POSRES_FC_BB    POSRES_FC_BB    POSRES_FC_BB   
   35     1    POSRES_FC_BB    POSRES_FC_BB    POSRES_FC_BB   
   36     1    POSRES_FC_BB    POSRES_FC_BB    POSRES_FC_BB   
   39     1    POSRES_FC_BB    POSRES_FC_BB    POSRES_FC_BB   
   41     1    POSRES_FC_SC    POSRES_FC_SC    POSRES_FC_SC   
   42     1    POSRES_FC_SC    POSRES_FC_SC    POSRES_FC_SC   
   44     1    POSRES_FC_SC    POSRES_FC_SC    POSRES_FC_SC   
   45     1    POSRES_FC_SC    POSRES_FC_SC    POSRES_FC_SC   
   46     1    POSRES_FC_SC    POSRES_FC_SC    POSRES_FC_SC   
   47     1    POSRES_FC_SC    POSRES_FC_SC    POSRES_FC_SC   
   49     1    POSRES_FC_SC    POSRES_FC_SC    POSRES_FC_SC   
   50     1    POSRES_FC_SC    POSRES_FC_SC    POSRES_FC_SC   
   52     1    POSRES_FC_SC    POSRES_FC_SC    POSRES_FC_SC   
   53     1    POSRES_FC_SC    POSRES_FC_SC    POSRES_FC_SC   
   54     1    POSRES_FC_SC    POSRES_FC_SC    POSRES_FC_SC   
   55     1    POSRES_FC_SC    POSRES_FC_SC    POSRES_FC_SC   
   58     1    POSRES_FC_SC    POSRES_FC_SC    POSRES_FC_SC   
   60     1    POSRES_FC_SC    POSRES_FC_SC    POSRES_FC_SC   
   62     1    POSRES_FC_BB    POSRES_FC_BB    POSRES_FC_BB   
   64     1    POSRES_FC_BB    POSRES_FC_BB    POSRES_FC_BB   
   65     1    POSRES_FC_BB    POSRES_FC_BB    POSRES_FC_BB   
   66     1    POSRES_FC_BB    POSRES_FC_BB    POSRES_FC_BB   
   67     1    POSRES_FC_BB    POSRES_FC_BB    POSRES_FC_BB   
   68     1    POSRES_FC_BB    POSRES_FC_BB    POSRES_FC_BB   
   69     1    POSRES_FC_BB    POSRES_FC_BB    POSRES_FC_BB   
   72     1    POSRES_FC_BB    POSRES_FC_BB    POSRES_FC_BB   
   74     1    POSRES_FC_SC    POSRES_FC_SC    POSRES_FC_SC   
   75     1    POSRES_FC_SC    POSRES_FC_SC    POSRES_FC_SC   
   77     1    POSRES_FC_SC    POSRES_FC_SC    POSRES_FC_SC   
   78     1    POSRES_FC_SC    POSRES_FC_SC    POSRES_FC_SC   
   79     1    POSRES_FC_SC    POSRES_FC_SC    POSRES_FC_SC   
   82     1    POSRES_FC_SC    POSRES_FC_SC    POSRES_FC_SC   
   83     1    POSRES_FC_SC    POSRES_FC_SC    POSRES_FC_SC   
   84     1    POSRES_FC_SC    POSRES_FC_SC    POSRES_FC_SC   
   86     1    POSRES_FC_SC    POSRES_FC_SC    POSRES_FC_SC   
   87     1    POSRES_FC_SC    POSRES_FC_SC    POSRES_FC_SC   
   88     1    POSRES_FC_SC    POSRES_FC_SC    POSRES_FC_SC   
   89     1    POSRES_FC_SC    POSRES_FC_SC    POSRES_FC_SC   
   90     1    POSRES_FC_SC    POSRES_FC_SC    POSRES_FC_SC   
   92     1    POSRES_FC_SC    POSRES_FC_SC    POSRES_FC_SC   
   94     1    POSRES_FC_SC    POSRES_FC_SC    POSRES_FC_SC   
   96     1    POSRES_FC_BB    POSRES_FC_BB    POSRES_FC_BB   
   98     1    POSRES_FC_BB    POSRES_FC_BB    POSRES_FC_BB   
   99     1    POSRES_FC_BB    POSRES_FC_BB    POSRES_FC_BB   
  100     1    POSRES_FC_BB    POSRES_FC_BB    POSRES_FC_BB   
  101     1    POSRES_FC_BB    POSRES_FC_BB    POSRES_FC_BB   
  102     1    POSRES_FC_BB    POSRES_FC_BB    POSRES_FC_BB   
  103     1    POSRES_FC_BB    POSRES_FC_BB    POSRES_FC_BB   
  106     1    POSRES_FC_BB    POSRES_FC_BB    POSRES_FC_BB   
  108     1    POSRES_FC_SC    POSRES_FC_SC    POSRES_FC_SC   
  109     1    POSRES_FC_SC    POSRES_FC_SC    POSRES_FC_SC   
  111     1    POSRES_FC_SC    POSRES_FC_SC    POSRES_FC_SC   
  112     1    POSRES_FC_SC    POSRES_FC_SC    POSRES_FC_SC   
  113     1    POSRES_FC_SC    POSRES_FC_SC    POSRES_FC_SC   
  116     1    POSRES_FC_SC    POSRES_FC_SC    POSRES_FC_SC   
  117     1    POSRES_FC_SC    POSRES_FC_SC    POSRES_FC_SC   
  118     1    POSRES_FC_SC    POSRES_FC_SC    POSRES_FC_SC   
  120     1    POSRES_FC_SC    POSRES_FC_SC    POSRES_FC_SC   
  121     1    POSRES_FC_SC    POSRES_FC_SC    POSRES_FC_SC   
  122     1    POSRES_FC_SC    POSRES_FC_SC    POSRES_FC_SC   
  123     1    POSRES_FC_SC    POSRES_FC_SC    POSRES_FC_SC   
  124     1    POSRES_FC_SC    POSRES_FC_SC    POSRES_FC_SC   
  126     1    POSRES_FC_SC    POSRES_FC_SC    POSRES_FC_SC   
  128     1    POSRES_FC_SC    POSRES_FC_SC    POSRES_FC_SC   
  130     1    POSRES_FC_BB    POSRES_FC_BB    POSRES_FC_BB   
  132     1    POSRES_FC_BB    POSRES_FC_BB    POSRES_FC_BB   
  133     1    POSRES_FC_BB    POSRES_FC_BB    POSRES_FC_BB   
  134     1    POSRES_FC_BB    POSRES_FC_BB    POSRES_FC_BB   
  135     1    POSRES_FC_BB    POSRES_FC_BB    POSRES_FC_BB   
  136     1    POSRES_FC_BB    POSRES_FC_BB    POSRES_FC_BB   
  137     1    POSRES_FC_BB    POSRES_FC_BB    POSRES_FC_BB   
  140     1    POSRES_FC_BB    POSRES_FC_BB    POSRES_FC_BB   
  142     1    POSRES_FC_SC    POSRES_FC_SC    POSRES_FC_SC   
  143     1    POSRES_FC_SC    POSRES_FC_SC    POSRES_FC_SC   
  145     1    POSRES_FC_SC    POSRES_FC_SC    POSRES_FC_SC   
  146     1    POSRES_FC_SC    POSRES_FC_SC    POSRES_FC_SC   
  147     1    POSRES_FC_SC    POSRES_FC_SC    POSRES_FC_SC   
  148     1    POSRES_FC_SC    POSRES_FC_SC    POSRES_FC_SC   
  150     1    POSRES_FC_SC    POSRES_FC_SC    POSRES_FC_SC   
  151     1    POSRES_FC_SC    POSRES_FC_SC    POSRES_FC_SC   
  153     1    POSRES_FC_SC    POSRES_FC_SC    POSRES_FC_SC   
  154     1    POSRES_FC_SC    POSRES_FC_SC    POSRES_FC_SC   
  155     1    POSRES_FC_SC    POSRES_FC_SC    POSRES_FC_SC   
  156     1    POSRES_FC_SC    POSRES_FC_SC    POSRES_FC_SC   
  159     1    POSRES_FC_SC    POSRES_FC_SC    POSRES_FC_SC   
  161     1    POSRES_FC_SC    POSRES_FC_SC    POSRES_FC_SC   
  163     1    POSRES_FC_BB    POSRES_FC_BB    POSRES_FC_BB   
  165     1    POSRES_FC_BB    POSRES_FC_BB    POSRES_FC_BB   
  166     1    POSRES_FC_BB    POSRES_FC_BB    POSRES_FC_BB   
  167     1    POSRES_FC_BB    POSRES_FC_BB    POSRES_FC_BB   
  168     1    POSRES_FC_BB    POSRES_FC_BB    POSRES_FC_BB   
  169     1    POSRES_FC_BB    POSRES_FC_BB    POSRES_FC_BB   
  170     1    POSRES_FC_BB    POSRES_FC_BB    POSRES_FC_BB   
  173     1    POSRES_FC_BB    POSRES_FC_BB    POSRES_FC_BB   
  175     1    POSRES_FC_SC    POSRES_FC_SC    POSRES_FC_SC   
  176     1    POSRES_FC_SC    POSRES_FC_SC    POSRES_FC_SC   
  178     1    POSRES_FC_SC    POSRES_FC_SC    POSRES_FC_SC   
  179     1    POSRES_FC_SC    POSRES_FC_SC    POSRES_FC_SC   
  181     1    POSRES_FC_SC    POSRES_FC_SC    POSRES_FC_SC   
  183     1    POSRES_FC_SC    POSRES_FC_SC    POSRES_FC_SC   
  184     1    POSRES_FC_SC    POSRES_FC_SC    POSRES_FC_SC   
  185     1    POSRES_FC_SC    POSRES_FC_SC    POSRES_FC_SC   
  186     1    POSRES_FC_SC    POSRES_FC_SC    POSRES_FC_SC   
  187     1    POSRES_FC_SC    POSRES_FC_SC    POSRES_FC_SC   
  190     1    POSRES_FC_SC    POSRES_FC_SC    POSRES_FC_SC   
  192     1    POSRES_FC_SC    POSRES_FC_SC    POSRES_FC_SC   
  194     1    POSRES_FC_BB    POSRES_FC_BB    POSRES_FC_BB   
  196     1    POSRES_FC_BB    POSRES_FC_BB    POSRES_FC_BB   
  197     1    POSRES_FC_BB    POSRES_FC_BB    POSRES_FC_BB   
  198     1    POSRES_FC_BB    POSRES_FC_BB    POSRES_FC_BB   
  199     1    POSRES_FC_BB    POSRES_FC_BB    POSRES_FC_BB   
  200     1    POSRES_FC_BB    POSRES_FC_BB    POSRES_FC_BB   
  201     1    POSRES_FC_BB    POSRES_FC_BB    POSRES_FC_BB   
  204     1    POSRES_FC_BB    POSRES_FC_BB    POSRES_FC_BB   
  206     1    POSRES_FC_SC    POSRES_FC_SC    POSRES_FC_SC   
  207     1    POSRES_FC_SC    POSRES_FC_SC    POSRES_FC_SC   
  209     1    POSRES_FC_SC    POSRES_FC_SC    POSRES_FC_SC   
  210     1    POSRES_FC_SC    POSRES_FC_SC    POSRES_FC_SC   
  212     1    POSRES_FC_SC    POSRES_FC_SC    POSRES_FC_SC   
  213     1    POSRES_FC_SC    POSRES_FC_SC    POSRES_FC_SC   
  214     1    POSRES_FC_SC    POSRES_FC_SC    POSRES_FC_SC   
  216     1    POSRES_FC_SC    POSRES_FC_SC    POSRES_FC_SC   
  217     1    POSRES_FC_SC    POSRES_FC_SC    POSRES_FC_SC   
  218     1    POSRES_FC_SC    POSRES_FC_SC    POSRES_FC_SC   
  220     1    POSRES_FC_SC    POSRES_FC_SC    POSRES_FC_SC   
  222     1    POSRES_FC_SC    POSRES_FC_SC    POSRES_FC_SC   
  224     1    POSRES_FC_BB    POSRES_FC_BB    POSRES_FC_BB   
  226     1    POSRES_FC_BB    POSRES_FC_BB    POSRES_FC_BB   
  227     1    POSRES_FC_BB    POSRES_FC_BB    POSRES_FC_BB   
  228     1    POSRES_FC_BB    POSRES_FC_BB    POSRES_FC_BB   
  229     1    POSRES_FC_BB    POSRES_FC_BB    POSRES_FC_BB   
  230     1    POSRES_FC_BB    POSRES_FC_BB    POSRES_FC_BB   
  231     1    POSRES_FC_BB    POSRES_FC_BB    POSRES_FC_BB   
  234     1    POSRES_FC_BB    POSRES_FC_BB    POSRES_FC_BB   
  236     1    POSRES_FC_SC    POSRES_FC_SC    POSRES_FC_SC   
  237     1    POSRES_FC_SC    POSRES_FC_SC    POSRES_FC_SC   
  239     1    POSRES_FC_SC    POSRES_FC_SC    POSRES_FC_SC   
  240     1    POSRES_FC_SC    POSRES_FC_SC    POSRES_FC_SC   
  241     1    POSRES_FC_SC    POSRES_FC_SC    POSRES_FC_SC   
  242     1    POSRES_FC_SC    POSRES_FC_SC    POSRES_FC_SC   
  244     1    POSRES_FC_SC    POSRES_FC_SC    POSRES_FC_SC   
  245     1    POSRES_FC_SC    POSRES_FC_SC    POSRES_FC_SC   
  247     1    POSRES_FC_SC    POSRES_FC_SC    POSRES_FC_SC   
  248     1    POSRES_FC_SC    POSRES_FC_SC    POSRES_FC_SC   
  249     1    POSRES_FC_SC    POSRES_FC_SC    POSRES_FC_SC   
  250     1    POSRES_FC_SC    POSRES_FC_SC    POSRES_FC_SC   
  253     1    POSRES_FC_SC    POSRES_FC_SC    POSRES_FC_SC   
  255     1    POSRES_FC_SC    POSRES_FC_SC    POSRES_FC_SC   
  257     1    POSRES_FC_BB    POSRES_FC_BB    POSRES_FC_BB   
  259     1    POSRES_FC_BB    POSRES_FC_BB    POSRES_FC_BB   
  260     1    POSRES_FC_BB    POSRES_FC_BB    POSRES_FC_BB   
  261     1    POSRES_FC_BB    POSRES_FC_BB    POSRES_FC_BB   
  262     1    POSRES_FC_BB    POSRES_FC_BB    POSRES_FC_BB   
  263     1    POSRES_FC_BB    POSRES_FC_BB    POSRES_FC_BB   
  264     1    POSRES_FC_BB    POSRES_FC_BB    POSRES_FC_BB   
  267     1    POSRES_FC_BB    POSRES_FC_BB    POSRES_FC_BB   
  269     1    POSRES_FC_SC    POSRES_FC_SC    POSRES_FC_SC   
  270     1    POSRES_FC_SC    POSRES_FC_SC    POSRES_FC_SC   
  272     1    POSRES_FC_SC    POSRES_FC_SC    POSRES_FC_SC   
  273     1    POSRES_FC_SC    POSRES_FC_SC    POSRES_FC_SC   
  274     1    POSRES_FC_SC    POSRES_FC_SC    POSRES_FC_SC   
  277     1    POSRES_FC_SC    POSRES_FC_SC    POSRES_FC_SC   
  278     1    POSRES_FC_SC    POSRES_FC_SC    POSRES_FC_SC   
  279     1    POSRES_FC_SC    POSRES_FC_SC    POSRES_FC_SC   
  281     1    POSRES_FC_SC    POSRES_FC_SC    POSRES_FC_SC   
  282     1    POSRES_FC_SC    POSRES_FC_SC    POSRES_FC_SC   
  283     1    POSRES_FC_SC    POSRES_FC_SC    POSRES_FC_SC   
  284     1    POSRES_FC_SC    POSRES_FC_SC    POSRES_FC_SC   
  285     1    POSRES_FC_SC    POSRES_FC_SC    POSRES_FC_SC   
  287     1    POSRES_FC_SC    POSRES_FC_SC    POSRES_FC_SC   
  289     1    POSRES_FC_SC    POSRES_FC_SC    POSRES_FC_SC   
  291     1    POSRES_FC_BB    POSRES_FC_BB    POSRES_FC_BB   
  293     1    POSRES_FC_BB    POSRES_FC_BB    POSRES_FC_BB   
  294     1    POSRES_FC_BB    POSRES_FC_BB    POSRES_FC_BB   
  295     1    POSRES_FC_BB    POSRES_FC_BB    POSRES_FC_BB   
  296     1    POSRES_FC_BB    POSRES_FC_BB    POSRES_FC_BB   
  297     1    POSRES_FC_BB    POSRES_FC_BB    POSRES_FC_BB   
  298     1    POSRES_FC_BB    POSRES_FC_BB    POSRES_FC_BB   
  301     1    POSRES_FC_BB    POSRES_FC_BB    POSRES_FC_BB   
  303     1    POSRES_FC_SC    POSRES_FC_SC    POSRES_FC_SC   
  304     1    POSRES_FC_SC    POSRES_FC_SC    POSRES_FC_SC   
  306     1    POSRES_FC_SC    POSRES_FC_SC    POSRES_FC_SC   
  307     1    POSRES_FC_SC    POSRES_FC_SC    POSRES_FC_SC   
  309     1    POSRES_FC_SC    POSRES_FC_SC    POSRES_FC_SC   
  311     1    POSRES_FC_SC    POSRES_FC_SC    POSRES_FC_SC   
  312     1    POSRES_FC_SC    POSRES_FC_SC    POSRES_FC_SC   
  313     1    POSRES_FC_SC    POSRES_FC_SC    POSRES_FC_SC   
  314     1    POSRES_FC_SC    POSRES_FC_SC    POSRES_FC_SC   
  315     1    POSRES_FC_SC    POSRES_FC_SC    POSRES_FC_SC   
  318     1    POSRES_FC_SC    POSRES_FC_SC    POSRES_FC_SC   
  320     1    POSRES_FC_SC    POSRES_FC_SC    POSRES_FC_SC   
  322     1    POSRES_FC_BB    POSRES_FC_BB    POSRES_FC_BB   
  324     1    POSRES_FC_BB    POSRES_FC_BB    POSRES_FC_BB   
#endif
