;;
;; Generated by CHARMM-GUI FF-Converter
;;
;; Correspondance:
;; jul316@lehigh.edu or wonpil@lehigh.edu
;;
;; GROMACS topology file for DNAB
;;


[ moleculetype ]
; name	nrexcl
DNAB	     3

[ atoms ]
; nr	type	resnr	residu	atom	cgnr	charge	mass
     1        HN5      1      THY    H5T      1     0.430000     1.0080   ; qtot  0.430
     2        ON5      1      THY    O5'      2    -0.660000    15.9994   ; qtot -0.230
     3       CN8B      1      THY    C5'      3     0.050000    12.0110   ; qtot -0.180
     4        HN8      1      THY    H5'      4     0.090000     1.0080   ; qtot -0.090
     5        HN8      1      THY   H5''      5     0.090000     1.0080   ; qtot -0.000
     6        CN7      1      THY    C4'      6     0.160000    12.0110   ; qtot  0.160
     7        HN7      1      THY    H4'      7     0.090000     1.0080   ; qtot  0.250
     8        ON6      1      THY    O4'      8    -0.500000    15.9994   ; qtot -0.250
     9       CN7B      1      THY    C1'      9     0.160000    12.0110   ; qtot -0.090
    10        HN7      1      THY    H1'     10     0.090000     1.0080   ; qtot -0.000
    11       NN2B      1      THY     N1     11    -0.340000    14.0070   ; qtot -0.340
    12        CN3      1      THY     C6     12     0.170000    12.0110   ; qtot -0.170
    13        HN3      1      THY     H6     13     0.170000     1.0080   ; qtot -0.000
    14       CN1T      1      THY     C2     14     0.510000    12.0110   ; qtot  0.510
    15        ON1      1      THY     O2     15    -0.410000    15.9994   ; qtot  0.100
    16       NN2U      1      THY     N3     16    -0.460000    14.0070   ; qtot -0.360
    17        HN2      1      THY     H3     17     0.360000     1.0080   ; qtot  0.000
    18        CN1      1      THY     C4     18     0.500000    12.0110   ; qtot  0.500
    19        ON1      1      THY     O4     19    -0.450000    15.9994   ; qtot  0.050
    20       CN3T      1      THY     C5     20    -0.150000    12.0110   ; qtot -0.100
    21        CN9      1      THY    C5M     21    -0.110000    12.0110   ; qtot -0.210
    22        HN9      1      THY    H51     22     0.070000     1.0080   ; qtot -0.140
    23        HN9      1      THY    H52     23     0.070000     1.0080   ; qtot -0.070
    24        HN9      1      THY    H53     24     0.070000     1.0080   ; qtot  0.000
    25        CN8      1      THY    C2'     25    -0.180000    12.0110   ; qtot -0.180
    26        HN8      1      THY   H2''     26     0.090000     1.0080   ; qtot -0.090
    27        HN8      1      THY    H2'     27     0.090000     1.0080   ; qtot  0.000
    28        CN7      1      THY    C3'     28     0.010000    12.0110   ; qtot  0.010
    29        HN7      1      THY    H3'     29     0.090000     1.0080   ; qtot  0.100
    30        ON2      1      THY    O3'     30    -0.570000    15.9994   ; qtot -0.470
    31         P2      2      THY      P     31     1.500000    30.9740   ; qtot  1.030
    32        ON3      2      THY    O1P     32    -0.780000    15.9994   ; qtot  0.250
    33        ON3      2      THY    O2P     33    -0.780000    15.9994   ; qtot -0.530
    34        ON2      2      THY    O5'     34    -0.570000    15.9994   ; qtot -1.100
    35       CN8B      2      THY    C5'     35    -0.080000    12.0110   ; qtot -1.180
    36        HN8      2      THY    H5'     36     0.090000     1.0080   ; qtot -1.090
    37        HN8      2      THY   H5''     37     0.090000     1.0080   ; qtot -1.000
    38        CN7      2      THY    C4'     38     0.160000    12.0110   ; qtot -0.840
    39        HN7      2      THY    H4'     39     0.090000     1.0080   ; qtot -0.750
    40        ON6      2      THY    O4'     40    -0.500000    15.9994   ; qtot -1.250
    41       CN7B      2      THY    C1'     41     0.160000    12.0110   ; qtot -1.090
    42        HN7      2      THY    H1'     42     0.090000     1.0080   ; qtot -1.000
    43       NN2B      2      THY     N1     43    -0.340000    14.0070   ; qtot -1.340
    44        CN3      2      THY     C6     44     0.170000    12.0110   ; qtot -1.170
    45        HN3      2      THY     H6     45     0.170000     1.0080   ; qtot -1.000
    46       CN1T      2      THY     C2     46     0.510000    12.0110   ; qtot -0.490
    47        ON1      2      THY     O2     47    -0.410000    15.9994   ; qtot -0.900
    48       NN2U      2      THY     N3     48    -0.460000    14.0070   ; qtot -1.360
    49        HN2      2      THY     H3     49     0.360000     1.0080   ; qtot -1.000
    50        CN1      2      THY     C4     50     0.500000    12.0110   ; qtot -0.500
    51        ON1      2      THY     O4     51    -0.450000    15.9994   ; qtot -0.950
    52       CN3T      2      THY     C5     52    -0.150000    12.0110   ; qtot -1.100
    53        CN9      2      THY    C5M     53    -0.110000    12.0110   ; qtot -1.210
    54        HN9      2      THY    H51     54     0.070000     1.0080   ; qtot -1.140
    55        HN9      2      THY    H52     55     0.070000     1.0080   ; qtot -1.070
    56        HN9      2      THY    H53     56     0.070000     1.0080   ; qtot -1.000
    57        CN8      2      THY    C2'     57    -0.180000    12.0110   ; qtot -1.180
    58        HN8      2      THY   H2''     58     0.090000     1.0080   ; qtot -1.090
    59        HN8      2      THY    H2'     59     0.090000     1.0080   ; qtot -1.000
    60        CN7      2      THY    C3'     60     0.010000    12.0110   ; qtot -0.990
    61        HN7      2      THY    H3'     61     0.090000     1.0080   ; qtot -0.900
    62        ON2      2      THY    O3'     62    -0.570000    15.9994   ; qtot -1.470
    63         P2      3      ADE      P     63     1.500000    30.9740   ; qtot  0.030
    64        ON3      3      ADE    O1P     64    -0.780000    15.9994   ; qtot -0.750
    65        ON3      3      ADE    O2P     65    -0.780000    15.9994   ; qtot -1.530
    66        ON2      3      ADE    O5'     66    -0.570000    15.9994   ; qtot -2.100
    67       CN8B      3      ADE    C5'     67    -0.080000    12.0110   ; qtot -2.180
    68        HN8      3      ADE    H5'     68     0.090000     1.0080   ; qtot -2.090
    69        HN8      3      ADE   H5''     69     0.090000     1.0080   ; qtot -2.000
    70        CN7      3      ADE    C4'     70     0.160000    12.0110   ; qtot -1.840
    71        HN7      3      ADE    H4'     71     0.090000     1.0080   ; qtot -1.750
    72        ON6      3      ADE    O4'     72    -0.500000    15.9994   ; qtot -2.250
    73       CN7B      3      ADE    C1'     73     0.160000    12.0110   ; qtot -2.090
    74        HN7      3      ADE    H1'     74     0.090000     1.0080   ; qtot -2.000
    75        NN2      3      ADE     N9     75    -0.050000    14.0070   ; qtot -2.050
    76        CN5      3      ADE     C5     76     0.280000    12.0110   ; qtot -1.770
    77        NN4      3      ADE     N7     77    -0.710000    14.0070   ; qtot -2.480
    78        CN4      3      ADE     C8     78     0.340000    12.0110   ; qtot -2.140
    79        HN3      3      ADE     H8     79     0.120000     1.0080   ; qtot -2.020
    80       NN3A      3      ADE     N1     80    -0.740000    14.0070   ; qtot -2.760
    81        CN4      3      ADE     C2     81     0.500000    12.0110   ; qtot -2.260
    82        HN3      3      ADE     H2     82     0.130000     1.0080   ; qtot -2.130
    83       NN3A      3      ADE     N3     83    -0.750000    14.0070   ; qtot -2.880
    84        CN5      3      ADE     C4     84     0.430000    12.0110   ; qtot -2.450
    85        CN2      3      ADE     C6     85     0.460000    12.0110   ; qtot -1.990
    86        NN1      3      ADE     N6     86    -0.770000    14.0070   ; qtot -2.760
    87        HN1      3      ADE    H61     87     0.380000     1.0080   ; qtot -2.380
    88        HN1      3      ADE    H62     88     0.380000     1.0080   ; qtot -2.000
    89        CN8      3      ADE    C2'     89    -0.180000    12.0110   ; qtot -2.180
    90        HN8      3      ADE   H2''     90     0.090000     1.0080   ; qtot -2.090
    91        HN8      3      ADE    H2'     91     0.090000     1.0080   ; qtot -2.000
    92        CN7      3      ADE    C3'     92     0.010000    12.0110   ; qtot -1.990
    93        HN7      3      ADE    H3'     93     0.090000     1.0080   ; qtot -1.900
    94        ON2      3      ADE    O3'     94    -0.570000    15.9994   ; qtot -2.470
    95         P2      4      GUA      P     95     1.500000    30.9740   ; qtot -0.970
    96        ON3      4      GUA    O1P     96    -0.780000    15.9994   ; qtot -1.750
    97        ON3      4      GUA    O2P     97    -0.780000    15.9994   ; qtot -2.530
    98        ON2      4      GUA    O5'     98    -0.570000    15.9994   ; qtot -3.100
    99       CN8B      4      GUA    C5'     99    -0.080000    12.0110   ; qtot -3.180
   100        HN8      4      GUA    H5'    100     0.090000     1.0080   ; qtot -3.090
   101        HN8      4      GUA   H5''    101     0.090000     1.0080   ; qtot -3.000
   102        CN7      4      GUA    C4'    102     0.160000    12.0110   ; qtot -2.840
   103        HN7      4      GUA    H4'    103     0.090000     1.0080   ; qtot -2.750
   104        ON6      4      GUA    O4'    104    -0.500000    15.9994   ; qtot -3.250
   105       CN7B      4      GUA    C1'    105     0.160000    12.0110   ; qtot -3.090
   106        HN7      4      GUA    H1'    106     0.090000     1.0080   ; qtot -3.000
   107       NN2B      4      GUA     N9    107    -0.020000    14.0070   ; qtot -3.020
   108        CN5      4      GUA     C4    108     0.260000    12.0110   ; qtot -2.760
   109        NN1      4      GUA     N2    109    -0.680000    14.0070   ; qtot -3.440
   110        HN1      4      GUA    H21    110     0.320000     1.0080   ; qtot -3.120
   111        HN1      4      GUA    H22    111     0.350000     1.0080   ; qtot -2.770
   112       NN3G      4      GUA     N3    112    -0.740000    14.0070   ; qtot -3.510
   113        CN2      4      GUA     C2    113     0.750000    12.0110   ; qtot -2.760
   114       NN2G      4      GUA     N1    114    -0.340000    14.0070   ; qtot -3.100
   115        HN2      4      GUA     H1    115     0.260000     1.0080   ; qtot -2.840
   116        CN1      4      GUA     C6    116     0.540000    12.0110   ; qtot -2.300
   117        ON1      4      GUA     O6    117    -0.510000    15.9994   ; qtot -2.810
   118       CN5G      4      GUA     C5    118     0.000000    12.0110   ; qtot -2.810
   119        NN4      4      GUA     N7    119    -0.600000    14.0070   ; qtot -3.410
   120        CN4      4      GUA     C8    120     0.250000    12.0110   ; qtot -3.160
   121        HN3      4      GUA     H8    121     0.160000     1.0080   ; qtot -3.000
   122        CN8      4      GUA    C2'    122    -0.180000    12.0110   ; qtot -3.180
   123        HN8      4      GUA   H2''    123     0.090000     1.0080   ; qtot -3.090
   124        HN8      4      GUA    H2'    124     0.090000     1.0080   ; qtot -3.000
   125        CN7      4      GUA    C3'    125     0.010000    12.0110   ; qtot -2.990
   126        HN7      4      GUA    H3'    126     0.090000     1.0080   ; qtot -2.900
   127        ON2      4      GUA    O3'    127    -0.570000    15.9994   ; qtot -3.470
   128         P2      5      GUA      P    128     1.500000    30.9740   ; qtot -1.970
   129        ON3      5      GUA    O1P    129    -0.780000    15.9994   ; qtot -2.750
   130        ON3      5      GUA    O2P    130    -0.780000    15.9994   ; qtot -3.530
   131        ON2      5      GUA    O5'    131    -0.570000    15.9994   ; qtot -4.100
   132       CN8B      5      GUA    C5'    132    -0.080000    12.0110   ; qtot -4.180
   133        HN8      5      GUA    H5'    133     0.090000     1.0080   ; qtot -4.090
   134        HN8      5      GUA   H5''    134     0.090000     1.0080   ; qtot -4.000
   135        CN7      5      GUA    C4'    135     0.160000    12.0110   ; qtot -3.840
   136        HN7      5      GUA    H4'    136     0.090000     1.0080   ; qtot -3.750
   137        ON6      5      GUA    O4'    137    -0.500000    15.9994   ; qtot -4.250
   138       CN7B      5      GUA    C1'    138     0.160000    12.0110   ; qtot -4.090
   139        HN7      5      GUA    H1'    139     0.090000     1.0080   ; qtot -4.000
   140       NN2B      5      GUA     N9    140    -0.020000    14.0070   ; qtot -4.020
   141        CN5      5      GUA     C4    141     0.260000    12.0110   ; qtot -3.760
   142        NN1      5      GUA     N2    142    -0.680000    14.0070   ; qtot -4.440
   143        HN1      5      GUA    H21    143     0.320000     1.0080   ; qtot -4.120
   144        HN1      5      GUA    H22    144     0.350000     1.0080   ; qtot -3.770
   145       NN3G      5      GUA     N3    145    -0.740000    14.0070   ; qtot -4.510
   146        CN2      5      GUA     C2    146     0.750000    12.0110   ; qtot -3.760
   147       NN2G      5      GUA     N1    147    -0.340000    14.0070   ; qtot -4.100
   148        HN2      5      GUA     H1    148     0.260000     1.0080   ; qtot -3.840
   149        CN1      5      GUA     C6    149     0.540000    12.0110   ; qtot -3.300
   150        ON1      5      GUA     O6    150    -0.510000    15.9994   ; qtot -3.810
   151       CN5G      5      GUA     C5    151     0.000000    12.0110   ; qtot -3.810
   152        NN4      5      GUA     N7    152    -0.600000    14.0070   ; qtot -4.410
   153        CN4      5      GUA     C8    153     0.250000    12.0110   ; qtot -4.160
   154        HN3      5      GUA     H8    154     0.160000     1.0080   ; qtot -4.000
   155        CN8      5      GUA    C2'    155    -0.180000    12.0110   ; qtot -4.180
   156        HN8      5      GUA   H2''    156     0.090000     1.0080   ; qtot -4.090
   157        HN8      5      GUA    H2'    157     0.090000     1.0080   ; qtot -4.000
   158        CN7      5      GUA    C3'    158     0.010000    12.0110   ; qtot -3.990
   159        HN7      5      GUA    H3'    159     0.090000     1.0080   ; qtot -3.900
   160        ON2      5      GUA    O3'    160    -0.570000    15.9994   ; qtot -4.470
   161         P2      6      GUA      P    161     1.500000    30.9740   ; qtot -2.970
   162        ON3      6      GUA    O1P    162    -0.780000    15.9994   ; qtot -3.750
   163        ON3      6      GUA    O2P    163    -0.780000    15.9994   ; qtot -4.530
   164        ON2      6      GUA    O5'    164    -0.570000    15.9994   ; qtot -5.100
   165       CN8B      6      GUA    C5'    165    -0.080000    12.0110   ; qtot -5.180
   166        HN8      6      GUA    H5'    166     0.090000     1.0080   ; qtot -5.090
   167        HN8      6      GUA   H5''    167     0.090000     1.0080   ; qtot -5.000
   168        CN7      6      GUA    C4'    168     0.160000    12.0110   ; qtot -4.840
   169        HN7      6      GUA    H4'    169     0.090000     1.0080   ; qtot -4.750
   170        ON6      6      GUA    O4'    170    -0.500000    15.9994   ; qtot -5.250
   171       CN7B      6      GUA    C1'    171     0.160000    12.0110   ; qtot -5.090
   172        HN7      6      GUA    H1'    172     0.090000     1.0080   ; qtot -5.000
   173       NN2B      6      GUA     N9    173    -0.020000    14.0070   ; qtot -5.020
   174        CN5      6      GUA     C4    174     0.260000    12.0110   ; qtot -4.760
   175        NN1      6      GUA     N2    175    -0.680000    14.0070   ; qtot -5.440
   176        HN1      6      GUA    H21    176     0.320000     1.0080   ; qtot -5.120
   177        HN1      6      GUA    H22    177     0.350000     1.0080   ; qtot -4.770
   178       NN3G      6      GUA     N3    178    -0.740000    14.0070   ; qtot -5.510
   179        CN2      6      GUA     C2    179     0.750000    12.0110   ; qtot -4.760
   180       NN2G      6      GUA     N1    180    -0.340000    14.0070   ; qtot -5.100
   181        HN2      6      GUA     H1    181     0.260000     1.0080   ; qtot -4.840
   182        CN1      6      GUA     C6    182     0.540000    12.0110   ; qtot -4.300
   183        ON1      6      GUA     O6    183    -0.510000    15.9994   ; qtot -4.810
   184       CN5G      6      GUA     C5    184     0.000000    12.0110   ; qtot -4.810
   185        NN4      6      GUA     N7    185    -0.600000    14.0070   ; qtot -5.410
   186        CN4      6      GUA     C8    186     0.250000    12.0110   ; qtot -5.160
   187        HN3      6      GUA     H8    187     0.160000     1.0080   ; qtot -5.000
   188        CN8      6      GUA    C2'    188    -0.180000    12.0110   ; qtot -5.180
   189        HN8      6      GUA   H2''    189     0.090000     1.0080   ; qtot -5.090
   190        HN8      6      GUA    H2'    190     0.090000     1.0080   ; qtot -5.000
   191        CN7      6      GUA    C3'    191     0.010000    12.0110   ; qtot -4.990
   192        HN7      6      GUA    H3'    192     0.090000     1.0080   ; qtot -4.900
   193        ON2      6      GUA    O3'    193    -0.570000    15.9994   ; qtot -5.470
   194         P2      7      THY      P    194     1.500000    30.9740   ; qtot -3.970
   195        ON3      7      THY    O1P    195    -0.780000    15.9994   ; qtot -4.750
   196        ON3      7      THY    O2P    196    -0.780000    15.9994   ; qtot -5.530
   197        ON2      7      THY    O5'    197    -0.570000    15.9994   ; qtot -6.100
   198       CN8B      7      THY    C5'    198    -0.080000    12.0110   ; qtot -6.180
   199        HN8      7      THY    H5'    199     0.090000     1.0080   ; qtot -6.090
   200        HN8      7      THY   H5''    200     0.090000     1.0080   ; qtot -6.000
   201        CN7      7      THY    C4'    201     0.160000    12.0110   ; qtot -5.840
   202        HN7      7      THY    H4'    202     0.090000     1.0080   ; qtot -5.750
   203        ON6      7      THY    O4'    203    -0.500000    15.9994   ; qtot -6.250
   204       CN7B      7      THY    C1'    204     0.160000    12.0110   ; qtot -6.090
   205        HN7      7      THY    H1'    205     0.090000     1.0080   ; qtot -6.000
   206       NN2B      7      THY     N1    206    -0.340000    14.0070   ; qtot -6.340
   207        CN3      7      THY     C6    207     0.170000    12.0110   ; qtot -6.170
   208        HN3      7      THY     H6    208     0.170000     1.0080   ; qtot -6.000
   209       CN1T      7      THY     C2    209     0.510000    12.0110   ; qtot -5.490
   210        ON1      7      THY     O2    210    -0.410000    15.9994   ; qtot -5.900
   211       NN2U      7      THY     N3    211    -0.460000    14.0070   ; qtot -6.360
   212        HN2      7      THY     H3    212     0.360000     1.0080   ; qtot -6.000
   213        CN1      7      THY     C4    213     0.500000    12.0110   ; qtot -5.500
   214        ON1      7      THY     O4    214    -0.450000    15.9994   ; qtot -5.950
   215       CN3T      7      THY     C5    215    -0.150000    12.0110   ; qtot -6.100
   216        CN9      7      THY    C5M    216    -0.110000    12.0110   ; qtot -6.210
   217        HN9      7      THY    H51    217     0.070000     1.0080   ; qtot -6.140
   218        HN9      7      THY    H52    218     0.070000     1.0080   ; qtot -6.070
   219        HN9      7      THY    H53    219     0.070000     1.0080   ; qtot -6.000
   220        CN8      7      THY    C2'    220    -0.180000    12.0110   ; qtot -6.180
   221        HN8      7      THY   H2''    221     0.090000     1.0080   ; qtot -6.090
   222        HN8      7      THY    H2'    222     0.090000     1.0080   ; qtot -6.000
   223        CN7      7      THY    C3'    223     0.010000    12.0110   ; qtot -5.990
   224        HN7      7      THY    H3'    224     0.090000     1.0080   ; qtot -5.900
   225        ON2      7      THY    O3'    225    -0.570000    15.9994   ; qtot -6.470
   226         P2      8      THY      P    226     1.500000    30.9740   ; qtot -4.970
   227        ON3      8      THY    O1P    227    -0.780000    15.9994   ; qtot -5.750
   228        ON3      8      THY    O2P    228    -0.780000    15.9994   ; qtot -6.530
   229        ON2      8      THY    O5'    229    -0.570000    15.9994   ; qtot -7.100
   230       CN8B      8      THY    C5'    230    -0.080000    12.0110   ; qtot -7.180
   231        HN8      8      THY    H5'    231     0.090000     1.0080   ; qtot -7.090
   232        HN8      8      THY   H5''    232     0.090000     1.0080   ; qtot -7.000
   233        CN7      8      THY    C4'    233     0.160000    12.0110   ; qtot -6.840
   234        HN7      8      THY    H4'    234     0.090000     1.0080   ; qtot -6.750
   235        ON6      8      THY    O4'    235    -0.500000    15.9994   ; qtot -7.250
   236       CN7B      8      THY    C1'    236     0.160000    12.0110   ; qtot -7.090
   237        HN7      8      THY    H1'    237     0.090000     1.0080   ; qtot -7.000
   238       NN2B      8      THY     N1    238    -0.340000    14.0070   ; qtot -7.340
   239        CN3      8      THY     C6    239     0.170000    12.0110   ; qtot -7.170
   240        HN3      8      THY     H6    240     0.170000     1.0080   ; qtot -7.000
   241       CN1T      8      THY     C2    241     0.510000    12.0110   ; qtot -6.490
   242        ON1      8      THY     O2    242    -0.410000    15.9994   ; qtot -6.900
   243       NN2U      8      THY     N3    243    -0.460000    14.0070   ; qtot -7.360
   244        HN2      8      THY     H3    244     0.360000     1.0080   ; qtot -7.000
   245        CN1      8      THY     C4    245     0.500000    12.0110   ; qtot -6.500
   246        ON1      8      THY     O4    246    -0.450000    15.9994   ; qtot -6.950
   247       CN3T      8      THY     C5    247    -0.150000    12.0110   ; qtot -7.100
   248        CN9      8      THY    C5M    248    -0.110000    12.0110   ; qtot -7.210
   249        HN9      8      THY    H51    249     0.070000     1.0080   ; qtot -7.140
   250        HN9      8      THY    H52    250     0.070000     1.0080   ; qtot -7.070
   251        HN9      8      THY    H53    251     0.070000     1.0080   ; qtot -7.000
   252        CN8      8      THY    C2'    252    -0.180000    12.0110   ; qtot -7.180
   253        HN8      8      THY   H2''    253     0.090000     1.0080   ; qtot -7.090
   254        HN8      8      THY    H2'    254     0.090000     1.0080   ; qtot -7.000
   255        CN7      8      THY    C3'    255     0.010000    12.0110   ; qtot -6.990
   256        HN7      8      THY    H3'    256     0.090000     1.0080   ; qtot -6.900
   257        ON2      8      THY    O3'    257    -0.570000    15.9994   ; qtot -7.470
   258         P2      9      ADE      P    258     1.500000    30.9740   ; qtot -5.970
   259        ON3      9      ADE    O1P    259    -0.780000    15.9994   ; qtot -6.750
   260        ON3      9      ADE    O2P    260    -0.780000    15.9994   ; qtot -7.530
   261        ON2      9      ADE    O5'    261    -0.570000    15.9994   ; qtot -8.100
   262       CN8B      9      ADE    C5'    262    -0.080000    12.0110   ; qtot -8.180
   263        HN8      9      ADE    H5'    263     0.090000     1.0080   ; qtot -8.090
   264        HN8      9      ADE   H5''    264     0.090000     1.0080   ; qtot -8.000
   265        CN7      9      ADE    C4'    265     0.160000    12.0110   ; qtot -7.840
   266        HN7      9      ADE    H4'    266     0.090000     1.0080   ; qtot -7.750
   267        ON6      9      ADE    O4'    267    -0.500000    15.9994   ; qtot -8.250
   268       CN7B      9      ADE    C1'    268     0.160000    12.0110   ; qtot -8.090
   269        HN7      9      ADE    H1'    269     0.090000     1.0080   ; qtot -8.000
   270        NN2      9      ADE     N9    270    -0.050000    14.0070   ; qtot -8.050
   271        CN5      9      ADE     C5    271     0.280000    12.0110   ; qtot -7.770
   272        NN4      9      ADE     N7    272    -0.710000    14.0070   ; qtot -8.480
   273        CN4      9      ADE     C8    273     0.340000    12.0110   ; qtot -8.140
   274        HN3      9      ADE     H8    274     0.120000     1.0080   ; qtot -8.020
   275       NN3A      9      ADE     N1    275    -0.740000    14.0070   ; qtot -8.760
   276        CN4      9      ADE     C2    276     0.500000    12.0110   ; qtot -8.260
   277        HN3      9      ADE     H2    277     0.130000     1.0080   ; qtot -8.130
   278       NN3A      9      ADE     N3    278    -0.750000    14.0070   ; qtot -8.880
   279        CN5      9      ADE     C4    279     0.430000    12.0110   ; qtot -8.450
   280        CN2      9      ADE     C6    280     0.460000    12.0110   ; qtot -7.990
   281        NN1      9      ADE     N6    281    -0.770000    14.0070   ; qtot -8.760
   282        HN1      9      ADE    H61    282     0.380000     1.0080   ; qtot -8.380
   283        HN1      9      ADE    H62    283     0.380000     1.0080   ; qtot -8.000
   284        CN8      9      ADE    C2'    284    -0.180000    12.0110   ; qtot -8.180
   285        HN8      9      ADE   H2''    285     0.090000     1.0080   ; qtot -8.090
   286        HN8      9      ADE    H2'    286     0.090000     1.0080   ; qtot -8.000
   287        CN7      9      ADE    C3'    287     0.010000    12.0110   ; qtot -7.990
   288        HN7      9      ADE    H3'    288     0.090000     1.0080   ; qtot -7.900
   289        ON2      9      ADE    O3'    289    -0.570000    15.9994   ; qtot -8.470
   290         P2     10      GUA      P    290     1.500000    30.9740   ; qtot -6.970
   291        ON3     10      GUA    O1P    291    -0.780000    15.9994   ; qtot -7.750
   292        ON3     10      GUA    O2P    292    -0.780000    15.9994   ; qtot -8.530
   293        ON2     10      GUA    O5'    293    -0.570000    15.9994   ; qtot -9.100
   294       CN8B     10      GUA    C5'    294    -0.080000    12.0110   ; qtot -9.180
   295        HN8     10      GUA    H5'    295     0.090000     1.0080   ; qtot -9.090
   296        HN8     10      GUA   H5''    296     0.090000     1.0080   ; qtot -9.000
   297        CN7     10      GUA    C4'    297     0.160000    12.0110   ; qtot -8.840
   298        HN7     10      GUA    H4'    298     0.090000     1.0080   ; qtot -8.750
   299        ON6     10      GUA    O4'    299    -0.500000    15.9994   ; qtot -9.250
   300       CN7B     10      GUA    C1'    300     0.160000    12.0110   ; qtot -9.090
   301        HN7     10      GUA    H1'    301     0.090000     1.0080   ; qtot -9.000
   302       NN2B     10      GUA     N9    302    -0.020000    14.0070   ; qtot -9.020
   303        CN5     10      GUA     C4    303     0.260000    12.0110   ; qtot -8.760
   304        NN1     10      GUA     N2    304    -0.680000    14.0070   ; qtot -9.440
   305        HN1     10      GUA    H21    305     0.320000     1.0080   ; qtot -9.120
   306        HN1     10      GUA    H22    306     0.350000     1.0080   ; qtot -8.770
   307       NN3G     10      GUA     N3    307    -0.740000    14.0070   ; qtot -9.510
   308        CN2     10      GUA     C2    308     0.750000    12.0110   ; qtot -8.760
   309       NN2G     10      GUA     N1    309    -0.340000    14.0070   ; qtot -9.100
   310        HN2     10      GUA     H1    310     0.260000     1.0080   ; qtot -8.840
   311        CN1     10      GUA     C6    311     0.540000    12.0110   ; qtot -8.300
   312        ON1     10      GUA     O6    312    -0.510000    15.9994   ; qtot -8.810
   313       CN5G     10      GUA     C5    313     0.000000    12.0110   ; qtot -8.810
   314        NN4     10      GUA     N7    314    -0.600000    14.0070   ; qtot -9.410
   315        CN4     10      GUA     C8    315     0.250000    12.0110   ; qtot -9.160
   316        HN3     10      GUA     H8    316     0.160000     1.0080   ; qtot -9.000
   317        CN8     10      GUA    C2'    317    -0.180000    12.0110   ; qtot -9.180
   318        HN8     10      GUA   H2''    318     0.090000     1.0080   ; qtot -9.090
   319        HN8     10      GUA    H2'    319     0.090000     1.0080   ; qtot -9.000
   320        CN7     10      GUA    C3'    320     0.010000    12.0110   ; qtot -8.990
   321        HN7     10      GUA    H3'    321     0.090000     1.0080   ; qtot -8.900
   322        ON2     10      GUA    O3'    322    -0.570000    15.9994   ; qtot -9.470
   323         P2     11      GUA      P    323     1.500000    30.9740   ; qtot -7.970
   324        ON3     11      GUA    O1P    324    -0.780000    15.9994   ; qtot -8.750
   325        ON3     11      GUA    O2P    325    -0.780000    15.9994   ; qtot -9.530
   326        ON2     11      GUA    O5'    326    -0.570000    15.9994   ; qtot -10.100
   327       CN8B     11      GUA    C5'    327    -0.080000    12.0110   ; qtot -10.180
   328        HN8     11      GUA    H5'    328     0.090000     1.0080   ; qtot -10.090
   329        HN8     11      GUA   H5''    329     0.090000     1.0080   ; qtot -10.000
   330        CN7     11      GUA    C4'    330     0.160000    12.0110   ; qtot -9.840
   331        HN7     11      GUA    H4'    331     0.090000     1.0080   ; qtot -9.750
   332        ON6     11      GUA    O4'    332    -0.500000    15.9994   ; qtot -10.250
   333       CN7B     11      GUA    C1'    333     0.160000    12.0110   ; qtot -10.090
   334        HN7     11      GUA    H1'    334     0.090000     1.0080   ; qtot -10.000
   335       NN2B     11      GUA     N9    335    -0.020000    14.0070   ; qtot -10.020
   336        CN5     11      GUA     C4    336     0.260000    12.0110   ; qtot -9.760
   337        NN1     11      GUA     N2    337    -0.680000    14.0070   ; qtot -10.440
   338        HN1     11      GUA    H21    338     0.320000     1.0080   ; qtot -10.120
   339        HN1     11      GUA    H22    339     0.350000     1.0080   ; qtot -9.770
   340       NN3G     11      GUA     N3    340    -0.740000    14.0070   ; qtot -10.510
   341        CN2     11      GUA     C2    341     0.750000    12.0110   ; qtot -9.760
   342       NN2G     11      GUA     N1    342    -0.340000    14.0070   ; qtot -10.100
   343        HN2     11      GUA     H1    343     0.260000     1.0080   ; qtot -9.840
   344        CN1     11      GUA     C6    344     0.540000    12.0110   ; qtot -9.300
   345        ON1     11      GUA     O6    345    -0.510000    15.9994   ; qtot -9.810
   346       CN5G     11      GUA     C5    346     0.000000    12.0110   ; qtot -9.810
   347        NN4     11      GUA     N7    347    -0.600000    14.0070   ; qtot -10.410
   348        CN4     11      GUA     C8    348     0.250000    12.0110   ; qtot -10.160
   349        HN3     11      GUA     H8    349     0.160000     1.0080   ; qtot -10.000
   350        CN8     11      GUA    C2'    350    -0.180000    12.0110   ; qtot -10.180
   351        HN8     11      GUA   H2''    351     0.090000     1.0080   ; qtot -10.090
   352        HN8     11      GUA    H2'    352     0.090000     1.0080   ; qtot -10.000
   353        CN7     11      GUA    C3'    353     0.010000    12.0110   ; qtot -9.990
   354        HN7     11      GUA    H3'    354     0.090000     1.0080   ; qtot -9.900
   355        ON2     11      GUA    O3'    355    -0.570000    15.9994   ; qtot -10.470
   356         P2     12      GUA      P    356     1.500000    30.9740   ; qtot -8.970
   357        ON3     12      GUA    O1P    357    -0.780000    15.9994   ; qtot -9.750
   358        ON3     12      GUA    O2P    358    -0.780000    15.9994   ; qtot -10.530
   359        ON2     12      GUA    O5'    359    -0.570000    15.9994   ; qtot -11.100
   360       CN8B     12      GUA    C5'    360    -0.080000    12.0110   ; qtot -11.180
   361        HN8     12      GUA    H5'    361     0.090000     1.0080   ; qtot -11.090
   362        HN8     12      GUA   H5''    362     0.090000     1.0080   ; qtot -11.000
   363        CN7     12      GUA    C4'    363     0.160000    12.0110   ; qtot -10.840
   364        HN7     12      GUA    H4'    364     0.090000     1.0080   ; qtot -10.750
   365        ON6     12      GUA    O4'    365    -0.500000    15.9994   ; qtot -11.250
   366       CN7B     12      GUA    C1'    366     0.160000    12.0110   ; qtot -11.090
   367        HN7     12      GUA    H1'    367     0.090000     1.0080   ; qtot -11.000
   368       NN2B     12      GUA     N9    368    -0.020000    14.0070   ; qtot -11.020
   369        CN5     12      GUA     C4    369     0.260000    12.0110   ; qtot -10.760
   370        NN1     12      GUA     N2    370    -0.680000    14.0070   ; qtot -11.440
   371        HN1     12      GUA    H21    371     0.320000     1.0080   ; qtot -11.120
   372        HN1     12      GUA    H22    372     0.350000     1.0080   ; qtot -10.770
   373       NN3G     12      GUA     N3    373    -0.740000    14.0070   ; qtot -11.510
   374        CN2     12      GUA     C2    374     0.750000    12.0110   ; qtot -10.760
   375       NN2G     12      GUA     N1    375    -0.340000    14.0070   ; qtot -11.100
   376        HN2     12      GUA     H1    376     0.260000     1.0080   ; qtot -10.840
   377        CN1     12      GUA     C6    377     0.540000    12.0110   ; qtot -10.300
   378        ON1     12      GUA     O6    378    -0.510000    15.9994   ; qtot -10.810
   379       CN5G     12      GUA     C5    379     0.000000    12.0110   ; qtot -10.810
   380        NN4     12      GUA     N7    380    -0.600000    14.0070   ; qtot -11.410
   381        CN4     12      GUA     C8    381     0.250000    12.0110   ; qtot -11.160
   382        HN3     12      GUA     H8    382     0.160000     1.0080   ; qtot -11.000
   383        CN8     12      GUA    C2'    383    -0.180000    12.0110   ; qtot -11.180
   384        HN8     12      GUA   H2''    384     0.090000     1.0080   ; qtot -11.090
   385        HN8     12      GUA    H2'    385     0.090000     1.0080   ; qtot -11.000
   386        CN7     12      GUA    C3'    386     0.140000    12.0110   ; qtot -10.860
   387        HN7     12      GUA    H3'    387     0.090000     1.0080   ; qtot -10.770
   388        ON5     12      GUA    O3'    388    -0.660000    15.9994   ; qtot -11.430
   389        HN5     12      GUA    H3T    389     0.430000     1.0080   ; qtot -11.000

[ bonds ]
; ai	aj	funct	b0	Kb
    1     2     1
    2     3     1
    3     4     1
    3     5     1
    3     6     1
    6     7     1
    6     8     1
    6    28     1
    8     9     1
    9    10     1
    9    11     1
    9    25     1
   11    12     1
   11    14     1
   12    13     1
   20    12     1
   14    15     1
   14    16     1
   16    17     1
   16    18     1
   18    19     1
   18    20     1
   20    21     1
   21    22     1
   21    23     1
   21    24     1
   25    26     1
   25    27     1
   25    28     1
   28    29     1
   28    30     1
   30    31     1
   31    32     1
   31    33     1
   31    34     1
   34    35     1
   35    36     1
   35    37     1
   35    38     1
   38    39     1
   38    40     1
   38    60     1
   40    41     1
   41    42     1
   41    43     1
   41    57     1
   43    44     1
   43    46     1
   44    45     1
   52    44     1
   46    47     1
   46    48     1
   48    49     1
   48    50     1
   50    51     1
   50    52     1
   52    53     1
   53    54     1
   53    55     1
   53    56     1
   57    58     1
   57    59     1
   57    60     1
   60    61     1
   60    62     1
   62    63     1
   63    64     1
   63    65     1
   63    66     1
   66    67     1
   67    68     1
   67    69     1
   67    70     1
   70    71     1
   70    72     1
   70    92     1
   72    73     1
   73    74     1
   73    75     1
   73    89     1
   75    78     1
   75    84     1
   76    77     1
   84    76     1
   85    76     1
   77    78     1
   78    79     1
   81    80     1
   80    85     1
   81    82     1
   81    83     1
   84    83     1
   85    86     1
   86    87     1
   86    88     1
   89    90     1
   89    91     1
   89    92     1
   92    93     1
   92    94     1
   94    95     1
   95    96     1
   95    97     1
   95    98     1
   98    99     1
   99   100     1
   99   101     1
   99   102     1
  102   103     1
  102   104     1
  102   125     1
  104   105     1
  105   106     1
  105   107     1
  105   122     1
  107   108     1
  107   120     1
  108   112     1
  108   118     1
  109   110     1
  109   111     1
  113   109     1
  113   112     1
  113   114     1
  114   115     1
  114   116     1
  116   117     1
  116   118     1
  118   119     1
  119   120     1
  120   121     1
  122   123     1
  122   124     1
  122   125     1
  125   126     1
  125   127     1
  127   128     1
  128   129     1
  128   130     1
  128   131     1
  131   132     1
  132   133     1
  132   134     1
  132   135     1
  135   136     1
  135   137     1
  135   158     1
  137   138     1
  138   139     1
  138   140     1
  138   155     1
  140   141     1
  140   153     1
  141   145     1
  141   151     1
  142   143     1
  142   144     1
  146   142     1
  146   145     1
  146   147     1
  147   148     1
  147   149     1
  149   150     1
  149   151     1
  151   152     1
  152   153     1
  153   154     1
  155   156     1
  155   157     1
  155   158     1
  158   159     1
  158   160     1
  160   161     1
  161   162     1
  161   163     1
  161   164     1
  164   165     1
  165   166     1
  165   167     1
  165   168     1
  168   169     1
  168   170     1
  168   191     1
  170   171     1
  171   172     1
  171   173     1
  171   188     1
  173   174     1
  173   186     1
  174   178     1
  174   184     1
  175   176     1
  175   177     1
  179   175     1
  179   178     1
  179   180     1
  180   181     1
  180   182     1
  182   183     1
  182   184     1
  184   185     1
  185   186     1
  186   187     1
  188   189     1
  188   190     1
  188   191     1
  191   192     1
  191   193     1
  193   194     1
  194   195     1
  194   196     1
  194   197     1
  197   198     1
  198   199     1
  198   200     1
  198   201     1
  201   202     1
  201   203     1
  201   223     1
  203   204     1
  204   205     1
  204   206     1
  204   220     1
  206   207     1
  206   209     1
  207   208     1
  215   207     1
  209   210     1
  209   211     1
  211   212     1
  211   213     1
  213   214     1
  213   215     1
  215   216     1
  216   217     1
  216   218     1
  216   219     1
  220   221     1
  220   222     1
  220   223     1
  223   224     1
  223   225     1
  225   226     1
  226   227     1
  226   228     1
  226   229     1
  229   230     1
  230   231     1
  230   232     1
  230   233     1
  233   234     1
  233   235     1
  233   255     1
  235   236     1
  236   237     1
  236   238     1
  236   252     1
  238   239     1
  238   241     1
  239   240     1
  247   239     1
  241   242     1
  241   243     1
  243   244     1
  243   245     1
  245   246     1
  245   247     1
  247   248     1
  248   249     1
  248   250     1
  248   251     1
  252   253     1
  252   254     1
  252   255     1
  255   256     1
  255   257     1
  257   258     1
  258   259     1
  258   260     1
  258   261     1
  261   262     1
  262   263     1
  262   264     1
  262   265     1
  265   266     1
  265   267     1
  265   287     1
  267   268     1
  268   269     1
  268   270     1
  268   284     1
  270   273     1
  270   279     1
  271   272     1
  279   271     1
  280   271     1
  272   273     1
  273   274     1
  276   275     1
  275   280     1
  276   277     1
  276   278     1
  279   278     1
  280   281     1
  281   282     1
  281   283     1
  284   285     1
  284   286     1
  284   287     1
  287   288     1
  287   289     1
  289   290     1
  290   291     1
  290   292     1
  290   293     1
  293   294     1
  294   295     1
  294   296     1
  294   297     1
  297   298     1
  297   299     1
  297   320     1
  299   300     1
  300   301     1
  300   302     1
  300   317     1
  302   303     1
  302   315     1
  303   307     1
  303   313     1
  304   305     1
  304   306     1
  308   304     1
  308   307     1
  308   309     1
  309   310     1
  309   311     1
  311   312     1
  311   313     1
  313   314     1
  314   315     1
  315   316     1
  317   318     1
  317   319     1
  317   320     1
  320   321     1
  320   322     1
  322   323     1
  323   324     1
  323   325     1
  323   326     1
  326   327     1
  327   328     1
  327   329     1
  327   330     1
  330   331     1
  330   332     1
  330   353     1
  332   333     1
  333   334     1
  333   335     1
  333   350     1
  335   336     1
  335   348     1
  336   340     1
  336   346     1
  337   338     1
  337   339     1
  341   337     1
  341   340     1
  341   342     1
  342   343     1
  342   344     1
  344   345     1
  344   346     1
  346   347     1
  347   348     1
  348   349     1
  350   351     1
  350   352     1
  350   353     1
  353   354     1
  353   355     1
  355   356     1
  356   357     1
  356   358     1
  356   359     1
  359   360     1
  360   361     1
  360   362     1
  360   363     1
  363   364     1
  363   365     1
  363   386     1
  365   366     1
  366   367     1
  366   368     1
  366   383     1
  368   369     1
  368   381     1
  369   373     1
  369   379     1
  370   371     1
  370   372     1
  374   370     1
  374   373     1
  374   375     1
  375   376     1
  375   377     1
  377   378     1
  377   379     1
  379   380     1
  380   381     1
  381   382     1
  383   384     1
  383   385     1
  383   386     1
  386   387     1
  386   388     1
  388   389     1

[ pairs ]
; ai	aj	funct	c6	c12 or
; ai	aj	funct	fudgeQQ	q1	q2	c6	c12
    1     4     1
    1     5     1
    1     6     1
    2     7     1
    2     8     1
    2    28     1
    3     9     1
    3    25     1
    3    29     1
    3    30     1
    4     7     1
    4     8     1
    4    28     1
    5     7     1
    5     8     1
    5    28     1
    6    10     1
    6    11     1
    6    26     1
    6    27     1
    6    31     1
    7     9     1
    7    25     1
    7    29     1
    7    30     1
    8    12     1
    8    14     1
    8    26     1
    8    27     1
    8    29     1
    8    30     1
    9    13     1
    9    15     1
    9    16     1
    9    20     1
    9    29     1
    9    30     1
   10    12     1
   10    14     1
   10    26     1
   10    27     1
   10    28     1
   11    17     1
   11    18     1
   11    21     1
   11    26     1
   11    27     1
   11    28     1
   12    15     1
   12    16     1
   12    19     1
   12    22     1
   12    23     1
   12    24     1
   12    25     1
   13    14     1
   13    18     1
   13    21     1
   14    19     1
   14    20     1
   14    25     1
   15    17     1
   15    18     1
   16    21     1
   17    19     1
   17    20     1
   18    22     1
   18    23     1
   18    24     1
   19    21     1
   25    31     1
   26    29     1
   26    30     1
   27    29     1
   27    30     1
   28    32     1
   28    33     1
   28    34     1
   29    31     1
   30    35     1
   31    36     1
   31    37     1
   31    38     1
   32    35     1
   33    35     1
   34    39     1
   34    40     1
   34    60     1
   35    41     1
   35    57     1
   35    61     1
   35    62     1
   36    39     1
   36    40     1
   36    60     1
   37    39     1
   37    40     1
   37    60     1
   38    42     1
   38    43     1
   38    58     1
   38    59     1
   38    63     1
   39    41     1
   39    57     1
   39    61     1
   39    62     1
   40    44     1
   40    46     1
   40    58     1
   40    59     1
   40    61     1
   40    62     1
   41    45     1
   41    47     1
   41    48     1
   41    52     1
   41    61     1
   41    62     1
   42    44     1
   42    46     1
   42    58     1
   42    59     1
   42    60     1
   43    49     1
   43    50     1
   43    53     1
   43    58     1
   43    59     1
   43    60     1
   44    47     1
   44    48     1
   44    51     1
   44    54     1
   44    55     1
   44    56     1
   44    57     1
   45    46     1
   45    50     1
   45    53     1
   46    51     1
   46    52     1
   46    57     1
   47    49     1
   47    50     1
   48    53     1
   49    51     1
   49    52     1
   50    54     1
   50    55     1
   50    56     1
   51    53     1
   57    63     1
   58    61     1
   58    62     1
   59    61     1
   59    62     1
   60    64     1
   60    65     1
   60    66     1
   61    63     1
   62    67     1
   63    68     1
   63    69     1
   63    70     1
   64    67     1
   65    67     1
   66    71     1
   66    72     1
   66    92     1
   67    73     1
   67    89     1
   67    93     1
   67    94     1
   68    71     1
   68    72     1
   68    92     1
   69    71     1
   69    72     1
   69    92     1
   70    74     1
   70    75     1
   70    90     1
   70    91     1
   70    95     1
   71    73     1
   71    89     1
   71    93     1
   71    94     1
   72    78     1
   72    84     1
   72    90     1
   72    91     1
   72    93     1
   72    94     1
   73    76     1
   73    77     1
   73    79     1
   73    83     1
   73    93     1
   73    94     1
   74    78     1
   74    84     1
   74    90     1
   74    91     1
   74    92     1
   75    81     1
   75    85     1
   75    90     1
   75    91     1
   75    92     1
   76    79     1
   76    81     1
   76    87     1
   76    88     1
   77    80     1
   77    83     1
   77    86     1
   78    83     1
   78    85     1
   78    89     1
   79    84     1
   80    84     1
   80    87     1
   80    88     1
   81    86     1
   82    84     1
   82    85     1
   83    85     1
   84    86     1
   84    89     1
   89    95     1
   90    93     1
   90    94     1
   91    93     1
   91    94     1
   92    96     1
   92    97     1
   92    98     1
   93    95     1
   94    99     1
   95   100     1
   95   101     1
   95   102     1
   96    99     1
   97    99     1
   98   103     1
   98   104     1
   98   125     1
   99   105     1
   99   122     1
   99   126     1
   99   127     1
  100   103     1
  100   104     1
  100   125     1
  101   103     1
  101   104     1
  101   125     1
  102   106     1
  102   107     1
  102   123     1
  102   124     1
  102   128     1
  103   105     1
  103   122     1
  103   126     1
  103   127     1
  104   108     1
  104   120     1
  104   123     1
  104   124     1
  104   126     1
  104   127     1
  105   112     1
  105   118     1
  105   119     1
  105   121     1
  105   126     1
  105   127     1
  106   108     1
  106   120     1
  106   123     1
  106   124     1
  106   125     1
  107   113     1
  107   116     1
  107   123     1
  107   124     1
  107   125     1
  108   109     1
  108   114     1
  108   117     1
  108   121     1
  108   122     1
  109   115     1
  109   116     1
  110   112     1
  110   114     1
  111   112     1
  111   114     1
  112   115     1
  112   116     1
  112   119     1
  112   120     1
  113   117     1
  113   118     1
  114   119     1
  115   117     1
  115   118     1
  116   120     1
  117   119     1
  118   121     1
  120   122     1
  122   128     1
  123   126     1
  123   127     1
  124   126     1
  124   127     1
  125   129     1
  125   130     1
  125   131     1
  126   128     1
  127   132     1
  128   133     1
  128   134     1
  128   135     1
  129   132     1
  130   132     1
  131   136     1
  131   137     1
  131   158     1
  132   138     1
  132   155     1
  132   159     1
  132   160     1
  133   136     1
  133   137     1
  133   158     1
  134   136     1
  134   137     1
  134   158     1
  135   139     1
  135   140     1
  135   156     1
  135   157     1
  135   161     1
  136   138     1
  136   155     1
  136   159     1
  136   160     1
  137   141     1
  137   153     1
  137   156     1
  137   157     1
  137   159     1
  137   160     1
  138   145     1
  138   151     1
  138   152     1
  138   154     1
  138   159     1
  138   160     1
  139   141     1
  139   153     1
  139   156     1
  139   157     1
  139   158     1
  140   146     1
  140   149     1
  140   156     1
  140   157     1
  140   158     1
  141   142     1
  141   147     1
  141   150     1
  141   154     1
  141   155     1
  142   148     1
  142   149     1
  143   145     1
  143   147     1
  144   145     1
  144   147     1
  145   148     1
  145   149     1
  145   152     1
  145   153     1
  146   150     1
  146   151     1
  147   152     1
  148   150     1
  148   151     1
  149   153     1
  150   152     1
  151   154     1
  153   155     1
  155   161     1
  156   159     1
  156   160     1
  157   159     1
  157   160     1
  158   162     1
  158   163     1
  158   164     1
  159   161     1
  160   165     1
  161   166     1
  161   167     1
  161   168     1
  162   165     1
  163   165     1
  164   169     1
  164   170     1
  164   191     1
  165   171     1
  165   188     1
  165   192     1
  165   193     1
  166   169     1
  166   170     1
  166   191     1
  167   169     1
  167   170     1
  167   191     1
  168   172     1
  168   173     1
  168   189     1
  168   190     1
  168   194     1
  169   171     1
  169   188     1
  169   192     1
  169   193     1
  170   174     1
  170   186     1
  170   189     1
  170   190     1
  170   192     1
  170   193     1
  171   178     1
  171   184     1
  171   185     1
  171   187     1
  171   192     1
  171   193     1
  172   174     1
  172   186     1
  172   189     1
  172   190     1
  172   191     1
  173   179     1
  173   182     1
  173   189     1
  173   190     1
  173   191     1
  174   175     1
  174   180     1
  174   183     1
  174   187     1
  174   188     1
  175   181     1
  175   182     1
  176   178     1
  176   180     1
  177   178     1
  177   180     1
  178   181     1
  178   182     1
  178   185     1
  178   186     1
  179   183     1
  179   184     1
  180   185     1
  181   183     1
  181   184     1
  182   186     1
  183   185     1
  184   187     1
  186   188     1
  188   194     1
  189   192     1
  189   193     1
  190   192     1
  190   193     1
  191   195     1
  191   196     1
  191   197     1
  192   194     1
  193   198     1
  194   199     1
  194   200     1
  194   201     1
  195   198     1
  196   198     1
  197   202     1
  197   203     1
  197   223     1
  198   204     1
  198   220     1
  198   224     1
  198   225     1
  199   202     1
  199   203     1
  199   223     1
  200   202     1
  200   203     1
  200   223     1
  201   205     1
  201   206     1
  201   221     1
  201   222     1
  201   226     1
  202   204     1
  202   220     1
  202   224     1
  202   225     1
  203   207     1
  203   209     1
  203   221     1
  203   222     1
  203   224     1
  203   225     1
  204   208     1
  204   210     1
  204   211     1
  204   215     1
  204   224     1
  204   225     1
  205   207     1
  205   209     1
  205   221     1
  205   222     1
  205   223     1
  206   212     1
  206   213     1
  206   216     1
  206   221     1
  206   222     1
  206   223     1
  207   210     1
  207   211     1
  207   214     1
  207   217     1
  207   218     1
  207   219     1
  207   220     1
  208   209     1
  208   213     1
  208   216     1
  209   214     1
  209   215     1
  209   220     1
  210   212     1
  210   213     1
  211   216     1
  212   214     1
  212   215     1
  213   217     1
  213   218     1
  213   219     1
  214   216     1
  220   226     1
  221   224     1
  221   225     1
  222   224     1
  222   225     1
  223   227     1
  223   228     1
  223   229     1
  224   226     1
  225   230     1
  226   231     1
  226   232     1
  226   233     1
  227   230     1
  228   230     1
  229   234     1
  229   235     1
  229   255     1
  230   236     1
  230   252     1
  230   256     1
  230   257     1
  231   234     1
  231   235     1
  231   255     1
  232   234     1
  232   235     1
  232   255     1
  233   237     1
  233   238     1
  233   253     1
  233   254     1
  233   258     1
  234   236     1
  234   252     1
  234   256     1
  234   257     1
  235   239     1
  235   241     1
  235   253     1
  235   254     1
  235   256     1
  235   257     1
  236   240     1
  236   242     1
  236   243     1
  236   247     1
  236   256     1
  236   257     1
  237   239     1
  237   241     1
  237   253     1
  237   254     1
  237   255     1
  238   244     1
  238   245     1
  238   248     1
  238   253     1
  238   254     1
  238   255     1
  239   242     1
  239   243     1
  239   246     1
  239   249     1
  239   250     1
  239   251     1
  239   252     1
  240   241     1
  240   245     1
  240   248     1
  241   246     1
  241   247     1
  241   252     1
  242   244     1
  242   245     1
  243   248     1
  244   246     1
  244   247     1
  245   249     1
  245   250     1
  245   251     1
  246   248     1
  252   258     1
  253   256     1
  253   257     1
  254   256     1
  254   257     1
  255   259     1
  255   260     1
  255   261     1
  256   258     1
  257   262     1
  258   263     1
  258   264     1
  258   265     1
  259   262     1
  260   262     1
  261   266     1
  261   267     1
  261   287     1
  262   268     1
  262   284     1
  262   288     1
  262   289     1
  263   266     1
  263   267     1
  263   287     1
  264   266     1
  264   267     1
  264   287     1
  265   269     1
  265   270     1
  265   285     1
  265   286     1
  265   290     1
  266   268     1
  266   284     1
  266   288     1
  266   289     1
  267   273     1
  267   279     1
  267   285     1
  267   286     1
  267   288     1
  267   289     1
  268   271     1
  268   272     1
  268   274     1
  268   278     1
  268   288     1
  268   289     1
  269   273     1
  269   279     1
  269   285     1
  269   286     1
  269   287     1
  270   276     1
  270   280     1
  270   285     1
  270   286     1
  270   287     1
  271   274     1
  271   276     1
  271   282     1
  271   283     1
  272   275     1
  272   278     1
  272   281     1
  273   278     1
  273   280     1
  273   284     1
  274   279     1
  275   279     1
  275   282     1
  275   283     1
  276   281     1
  277   279     1
  277   280     1
  278   280     1
  279   281     1
  279   284     1
  284   290     1
  285   288     1
  285   289     1
  286   288     1
  286   289     1
  287   291     1
  287   292     1
  287   293     1
  288   290     1
  289   294     1
  290   295     1
  290   296     1
  290   297     1
  291   294     1
  292   294     1
  293   298     1
  293   299     1
  293   320     1
  294   300     1
  294   317     1
  294   321     1
  294   322     1
  295   298     1
  295   299     1
  295   320     1
  296   298     1
  296   299     1
  296   320     1
  297   301     1
  297   302     1
  297   318     1
  297   319     1
  297   323     1
  298   300     1
  298   317     1
  298   321     1
  298   322     1
  299   303     1
  299   315     1
  299   318     1
  299   319     1
  299   321     1
  299   322     1
  300   307     1
  300   313     1
  300   314     1
  300   316     1
  300   321     1
  300   322     1
  301   303     1
  301   315     1
  301   318     1
  301   319     1
  301   320     1
  302   308     1
  302   311     1
  302   318     1
  302   319     1
  302   320     1
  303   304     1
  303   309     1
  303   312     1
  303   316     1
  303   317     1
  304   310     1
  304   311     1
  305   307     1
  305   309     1
  306   307     1
  306   309     1
  307   310     1
  307   311     1
  307   314     1
  307   315     1
  308   312     1
  308   313     1
  309   314     1
  310   312     1
  310   313     1
  311   315     1
  312   314     1
  313   316     1
  315   317     1
  317   323     1
  318   321     1
  318   322     1
  319   321     1
  319   322     1
  320   324     1
  320   325     1
  320   326     1
  321   323     1
  322   327     1
  323   328     1
  323   329     1
  323   330     1
  324   327     1
  325   327     1
  326   331     1
  326   332     1
  326   353     1
  327   333     1
  327   350     1
  327   354     1
  327   355     1
  328   331     1
  328   332     1
  328   353     1
  329   331     1
  329   332     1
  329   353     1
  330   334     1
  330   335     1
  330   351     1
  330   352     1
  330   356     1
  331   333     1
  331   350     1
  331   354     1
  331   355     1
  332   336     1
  332   348     1
  332   351     1
  332   352     1
  332   354     1
  332   355     1
  333   340     1
  333   346     1
  333   347     1
  333   349     1
  333   354     1
  333   355     1
  334   336     1
  334   348     1
  334   351     1
  334   352     1
  334   353     1
  335   341     1
  335   344     1
  335   351     1
  335   352     1
  335   353     1
  336   337     1
  336   342     1
  336   345     1
  336   349     1
  336   350     1
  337   343     1
  337   344     1
  338   340     1
  338   342     1
  339   340     1
  339   342     1
  340   343     1
  340   344     1
  340   347     1
  340   348     1
  341   345     1
  341   346     1
  342   347     1
  343   345     1
  343   346     1
  344   348     1
  345   347     1
  346   349     1
  348   350     1
  350   356     1
  351   354     1
  351   355     1
  352   354     1
  352   355     1
  353   357     1
  353   358     1
  353   359     1
  354   356     1
  355   360     1
  356   361     1
  356   362     1
  356   363     1
  357   360     1
  358   360     1
  359   364     1
  359   365     1
  359   386     1
  360   366     1
  360   383     1
  360   387     1
  360   388     1
  361   364     1
  361   365     1
  361   386     1
  362   364     1
  362   365     1
  362   386     1
  363   367     1
  363   368     1
  363   384     1
  363   385     1
  363   389     1
  364   366     1
  364   383     1
  364   387     1
  364   388     1
  365   369     1
  365   381     1
  365   384     1
  365   385     1
  365   387     1
  365   388     1
  366   373     1
  366   379     1
  366   380     1
  366   382     1
  366   387     1
  366   388     1
  367   369     1
  367   381     1
  367   384     1
  367   385     1
  367   386     1
  368   374     1
  368   377     1
  368   384     1
  368   385     1
  368   386     1
  369   370     1
  369   375     1
  369   378     1
  369   382     1
  369   383     1
  370   376     1
  370   377     1
  371   373     1
  371   375     1
  372   373     1
  372   375     1
  373   376     1
  373   377     1
  373   380     1
  373   381     1
  374   378     1
  374   379     1
  375   380     1
  376   378     1
  376   379     1
  377   381     1
  378   380     1
  379   382     1
  381   383     1
  383   389     1
  384   387     1
  384   388     1
  385   387     1
  385   388     1
  387   389     1

[ angles ] 
; ai	aj	ak	funct	th0	cth	S0	Kub
    1     2     3     5
    2     3     4     5
    2     3     5     5
    2     3     6     5
    4     3     5     5
    4     3     6     5
    5     3     6     5
    3     6     7     5
    3     6     8     5
    3     6    28     5
    7     6     8     5
    7     6    28     5
    8     6    28     5
    6     8     9     5
    8     9    10     5
    8     9    11     5
    8     9    25     5
   10     9    11     5
   10     9    25     5
   11     9    25     5
    9    11    12     5
    9    11    14     5
   12    11    14     5
   11    12    13     5
   11    12    20     5
   13    12    20     5
   11    14    15     5
   11    14    16     5
   15    14    16     5
   14    16    17     5
   14    16    18     5
   17    16    18     5
   16    18    19     5
   16    18    20     5
   19    18    20     5
   12    20    18     5
   12    20    21     5
   18    20    21     5
   20    21    22     5
   20    21    23     5
   20    21    24     5
   22    21    23     5
   22    21    24     5
   23    21    24     5
    9    25    26     5
    9    25    27     5
    9    25    28     5
   26    25    27     5
   26    25    28     5
   27    25    28     5
    6    28    25     5
    6    28    29     5
    6    28    30     5
   25    28    29     5
   25    28    30     5
   29    28    30     5
   28    30    31     5
   30    31    32     5
   30    31    33     5
   30    31    34     5
   32    31    33     5
   32    31    34     5
   33    31    34     5
   31    34    35     5
   34    35    36     5
   34    35    37     5
   34    35    38     5
   36    35    37     5
   36    35    38     5
   37    35    38     5
   35    38    39     5
   35    38    40     5
   35    38    60     5
   39    38    40     5
   39    38    60     5
   40    38    60     5
   38    40    41     5
   40    41    42     5
   40    41    43     5
   40    41    57     5
   42    41    43     5
   42    41    57     5
   43    41    57     5
   41    43    44     5
   41    43    46     5
   44    43    46     5
   43    44    45     5
   43    44    52     5
   45    44    52     5
   43    46    47     5
   43    46    48     5
   47    46    48     5
   46    48    49     5
   46    48    50     5
   49    48    50     5
   48    50    51     5
   48    50    52     5
   51    50    52     5
   44    52    50     5
   44    52    53     5
   50    52    53     5
   52    53    54     5
   52    53    55     5
   52    53    56     5
   54    53    55     5
   54    53    56     5
   55    53    56     5
   41    57    58     5
   41    57    59     5
   41    57    60     5
   58    57    59     5
   58    57    60     5
   59    57    60     5
   38    60    57     5
   38    60    61     5
   38    60    62     5
   57    60    61     5
   57    60    62     5
   61    60    62     5
   60    62    63     5
   62    63    64     5
   62    63    65     5
   62    63    66     5
   64    63    65     5
   64    63    66     5
   65    63    66     5
   63    66    67     5
   66    67    68     5
   66    67    69     5
   66    67    70     5
   68    67    69     5
   68    67    70     5
   69    67    70     5
   67    70    71     5
   67    70    72     5
   67    70    92     5
   71    70    72     5
   71    70    92     5
   72    70    92     5
   70    72    73     5
   72    73    74     5
   72    73    75     5
   72    73    89     5
   74    73    75     5
   74    73    89     5
   75    73    89     5
   73    75    78     5
   73    75    84     5
   78    75    84     5
   77    76    84     5
   77    76    85     5
   84    76    85     5
   76    77    78     5
   75    78    77     5
   75    78    79     5
   77    78    79     5
   81    80    85     5
   80    81    82     5
   80    81    83     5
   82    81    83     5
   81    83    84     5
   75    84    76     5
   75    84    83     5
   76    84    83     5
   76    85    80     5
   76    85    86     5
   80    85    86     5
   85    86    87     5
   85    86    88     5
   87    86    88     5
   73    89    90     5
   73    89    91     5
   73    89    92     5
   90    89    91     5
   90    89    92     5
   91    89    92     5
   70    92    89     5
   70    92    93     5
   70    92    94     5
   89    92    93     5
   89    92    94     5
   93    92    94     5
   92    94    95     5
   94    95    96     5
   94    95    97     5
   94    95    98     5
   96    95    97     5
   96    95    98     5
   97    95    98     5
   95    98    99     5
   98    99   100     5
   98    99   101     5
   98    99   102     5
  100    99   101     5
  100    99   102     5
  101    99   102     5
   99   102   103     5
   99   102   104     5
   99   102   125     5
  103   102   104     5
  103   102   125     5
  104   102   125     5
  102   104   105     5
  104   105   106     5
  104   105   107     5
  104   105   122     5
  106   105   107     5
  106   105   122     5
  107   105   122     5
  105   107   108     5
  105   107   120     5
  108   107   120     5
  107   108   112     5
  107   108   118     5
  112   108   118     5
  110   109   111     5
  110   109   113     5
  111   109   113     5
  108   112   113     5
  109   113   112     5
  109   113   114     5
  112   113   114     5
  113   114   115     5
  113   114   116     5
  115   114   116     5
  114   116   117     5
  114   116   118     5
  117   116   118     5
  108   118   116     5
  108   118   119     5
  116   118   119     5
  118   119   120     5
  107   120   119     5
  107   120   121     5
  119   120   121     5
  105   122   123     5
  105   122   124     5
  105   122   125     5
  123   122   124     5
  123   122   125     5
  124   122   125     5
  102   125   122     5
  102   125   126     5
  102   125   127     5
  122   125   126     5
  122   125   127     5
  126   125   127     5
  125   127   128     5
  127   128   129     5
  127   128   130     5
  127   128   131     5
  129   128   130     5
  129   128   131     5
  130   128   131     5
  128   131   132     5
  131   132   133     5
  131   132   134     5
  131   132   135     5
  133   132   134     5
  133   132   135     5
  134   132   135     5
  132   135   136     5
  132   135   137     5
  132   135   158     5
  136   135   137     5
  136   135   158     5
  137   135   158     5
  135   137   138     5
  137   138   139     5
  137   138   140     5
  137   138   155     5
  139   138   140     5
  139   138   155     5
  140   138   155     5
  138   140   141     5
  138   140   153     5
  141   140   153     5
  140   141   145     5
  140   141   151     5
  145   141   151     5
  143   142   144     5
  143   142   146     5
  144   142   146     5
  141   145   146     5
  142   146   145     5
  142   146   147     5
  145   146   147     5
  146   147   148     5
  146   147   149     5
  148   147   149     5
  147   149   150     5
  147   149   151     5
  150   149   151     5
  141   151   149     5
  141   151   152     5
  149   151   152     5
  151   152   153     5
  140   153   152     5
  140   153   154     5
  152   153   154     5
  138   155   156     5
  138   155   157     5
  138   155   158     5
  156   155   157     5
  156   155   158     5
  157   155   158     5
  135   158   155     5
  135   158   159     5
  135   158   160     5
  155   158   159     5
  155   158   160     5
  159   158   160     5
  158   160   161     5
  160   161   162     5
  160   161   163     5
  160   161   164     5
  162   161   163     5
  162   161   164     5
  163   161   164     5
  161   164   165     5
  164   165   166     5
  164   165   167     5
  164   165   168     5
  166   165   167     5
  166   165   168     5
  167   165   168     5
  165   168   169     5
  165   168   170     5
  165   168   191     5
  169   168   170     5
  169   168   191     5
  170   168   191     5
  168   170   171     5
  170   171   172     5
  170   171   173     5
  170   171   188     5
  172   171   173     5
  172   171   188     5
  173   171   188     5
  171   173   174     5
  171   173   186     5
  174   173   186     5
  173   174   178     5
  173   174   184     5
  178   174   184     5
  176   175   177     5
  176   175   179     5
  177   175   179     5
  174   178   179     5
  175   179   178     5
  175   179   180     5
  178   179   180     5
  179   180   181     5
  179   180   182     5
  181   180   182     5
  180   182   183     5
  180   182   184     5
  183   182   184     5
  174   184   182     5
  174   184   185     5
  182   184   185     5
  184   185   186     5
  173   186   185     5
  173   186   187     5
  185   186   187     5
  171   188   189     5
  171   188   190     5
  171   188   191     5
  189   188   190     5
  189   188   191     5
  190   188   191     5
  168   191   188     5
  168   191   192     5
  168   191   193     5
  188   191   192     5
  188   191   193     5
  192   191   193     5
  191   193   194     5
  193   194   195     5
  193   194   196     5
  193   194   197     5
  195   194   196     5
  195   194   197     5
  196   194   197     5
  194   197   198     5
  197   198   199     5
  197   198   200     5
  197   198   201     5
  199   198   200     5
  199   198   201     5
  200   198   201     5
  198   201   202     5
  198   201   203     5
  198   201   223     5
  202   201   203     5
  202   201   223     5
  203   201   223     5
  201   203   204     5
  203   204   205     5
  203   204   206     5
  203   204   220     5
  205   204   206     5
  205   204   220     5
  206   204   220     5
  204   206   207     5
  204   206   209     5
  207   206   209     5
  206   207   208     5
  206   207   215     5
  208   207   215     5
  206   209   210     5
  206   209   211     5
  210   209   211     5
  209   211   212     5
  209   211   213     5
  212   211   213     5
  211   213   214     5
  211   213   215     5
  214   213   215     5
  207   215   213     5
  207   215   216     5
  213   215   216     5
  215   216   217     5
  215   216   218     5
  215   216   219     5
  217   216   218     5
  217   216   219     5
  218   216   219     5
  204   220   221     5
  204   220   222     5
  204   220   223     5
  221   220   222     5
  221   220   223     5
  222   220   223     5
  201   223   220     5
  201   223   224     5
  201   223   225     5
  220   223   224     5
  220   223   225     5
  224   223   225     5
  223   225   226     5
  225   226   227     5
  225   226   228     5
  225   226   229     5
  227   226   228     5
  227   226   229     5
  228   226   229     5
  226   229   230     5
  229   230   231     5
  229   230   232     5
  229   230   233     5
  231   230   232     5
  231   230   233     5
  232   230   233     5
  230   233   234     5
  230   233   235     5
  230   233   255     5
  234   233   235     5
  234   233   255     5
  235   233   255     5
  233   235   236     5
  235   236   237     5
  235   236   238     5
  235   236   252     5
  237   236   238     5
  237   236   252     5
  238   236   252     5
  236   238   239     5
  236   238   241     5
  239   238   241     5
  238   239   240     5
  238   239   247     5
  240   239   247     5
  238   241   242     5
  238   241   243     5
  242   241   243     5
  241   243   244     5
  241   243   245     5
  244   243   245     5
  243   245   246     5
  243   245   247     5
  246   245   247     5
  239   247   245     5
  239   247   248     5
  245   247   248     5
  247   248   249     5
  247   248   250     5
  247   248   251     5
  249   248   250     5
  249   248   251     5
  250   248   251     5
  236   252   253     5
  236   252   254     5
  236   252   255     5
  253   252   254     5
  253   252   255     5
  254   252   255     5
  233   255   252     5
  233   255   256     5
  233   255   257     5
  252   255   256     5
  252   255   257     5
  256   255   257     5
  255   257   258     5
  257   258   259     5
  257   258   260     5
  257   258   261     5
  259   258   260     5
  259   258   261     5
  260   258   261     5
  258   261   262     5
  261   262   263     5
  261   262   264     5
  261   262   265     5
  263   262   264     5
  263   262   265     5
  264   262   265     5
  262   265   266     5
  262   265   267     5
  262   265   287     5
  266   265   267     5
  266   265   287     5
  267   265   287     5
  265   267   268     5
  267   268   269     5
  267   268   270     5
  267   268   284     5
  269   268   270     5
  269   268   284     5
  270   268   284     5
  268   270   273     5
  268   270   279     5
  273   270   279     5
  272   271   279     5
  272   271   280     5
  279   271   280     5
  271   272   273     5
  270   273   272     5
  270   273   274     5
  272   273   274     5
  276   275   280     5
  275   276   277     5
  275   276   278     5
  277   276   278     5
  276   278   279     5
  270   279   271     5
  270   279   278     5
  271   279   278     5
  271   280   275     5
  271   280   281     5
  275   280   281     5
  280   281   282     5
  280   281   283     5
  282   281   283     5
  268   284   285     5
  268   284   286     5
  268   284   287     5
  285   284   286     5
  285   284   287     5
  286   284   287     5
  265   287   284     5
  265   287   288     5
  265   287   289     5
  284   287   288     5
  284   287   289     5
  288   287   289     5
  287   289   290     5
  289   290   291     5
  289   290   292     5
  289   290   293     5
  291   290   292     5
  291   290   293     5
  292   290   293     5
  290   293   294     5
  293   294   295     5
  293   294   296     5
  293   294   297     5
  295   294   296     5
  295   294   297     5
  296   294   297     5
  294   297   298     5
  294   297   299     5
  294   297   320     5
  298   297   299     5
  298   297   320     5
  299   297   320     5
  297   299   300     5
  299   300   301     5
  299   300   302     5
  299   300   317     5
  301   300   302     5
  301   300   317     5
  302   300   317     5
  300   302   303     5
  300   302   315     5
  303   302   315     5
  302   303   307     5
  302   303   313     5
  307   303   313     5
  305   304   306     5
  305   304   308     5
  306   304   308     5
  303   307   308     5
  304   308   307     5
  304   308   309     5
  307   308   309     5
  308   309   310     5
  308   309   311     5
  310   309   311     5
  309   311   312     5
  309   311   313     5
  312   311   313     5
  303   313   311     5
  303   313   314     5
  311   313   314     5
  313   314   315     5
  302   315   314     5
  302   315   316     5
  314   315   316     5
  300   317   318     5
  300   317   319     5
  300   317   320     5
  318   317   319     5
  318   317   320     5
  319   317   320     5
  297   320   317     5
  297   320   321     5
  297   320   322     5
  317   320   321     5
  317   320   322     5
  321   320   322     5
  320   322   323     5
  322   323   324     5
  322   323   325     5
  322   323   326     5
  324   323   325     5
  324   323   326     5
  325   323   326     5
  323   326   327     5
  326   327   328     5
  326   327   329     5
  326   327   330     5
  328   327   329     5
  328   327   330     5
  329   327   330     5
  327   330   331     5
  327   330   332     5
  327   330   353     5
  331   330   332     5
  331   330   353     5
  332   330   353     5
  330   332   333     5
  332   333   334     5
  332   333   335     5
  332   333   350     5
  334   333   335     5
  334   333   350     5
  335   333   350     5
  333   335   336     5
  333   335   348     5
  336   335   348     5
  335   336   340     5
  335   336   346     5
  340   336   346     5
  338   337   339     5
  338   337   341     5
  339   337   341     5
  336   340   341     5
  337   341   340     5
  337   341   342     5
  340   341   342     5
  341   342   343     5
  341   342   344     5
  343   342   344     5
  342   344   345     5
  342   344   346     5
  345   344   346     5
  336   346   344     5
  336   346   347     5
  344   346   347     5
  346   347   348     5
  335   348   347     5
  335   348   349     5
  347   348   349     5
  333   350   351     5
  333   350   352     5
  333   350   353     5
  351   350   352     5
  351   350   353     5
  352   350   353     5
  330   353   350     5
  330   353   354     5
  330   353   355     5
  350   353   354     5
  350   353   355     5
  354   353   355     5
  353   355   356     5
  355   356   357     5
  355   356   358     5
  355   356   359     5
  357   356   358     5
  357   356   359     5
  358   356   359     5
  356   359   360     5
  359   360   361     5
  359   360   362     5
  359   360   363     5
  361   360   362     5
  361   360   363     5
  362   360   363     5
  360   363   364     5
  360   363   365     5
  360   363   386     5
  364   363   365     5
  364   363   386     5
  365   363   386     5
  363   365   366     5
  365   366   367     5
  365   366   368     5
  365   366   383     5
  367   366   368     5
  367   366   383     5
  368   366   383     5
  366   368   369     5
  366   368   381     5
  369   368   381     5
  368   369   373     5
  368   369   379     5
  373   369   379     5
  371   370   372     5
  371   370   374     5
  372   370   374     5
  369   373   374     5
  370   374   373     5
  370   374   375     5
  373   374   375     5
  374   375   376     5
  374   375   377     5
  376   375   377     5
  375   377   378     5
  375   377   379     5
  378   377   379     5
  369   379   377     5
  369   379   380     5
  377   379   380     5
  379   380   381     5
  368   381   380     5
  368   381   382     5
  380   381   382     5
  366   383   384     5
  366   383   385     5
  366   383   386     5
  384   383   385     5
  384   383   386     5
  385   383   386     5
  363   386   383     5
  363   386   387     5
  363   386   388     5
  383   386   387     5
  383   386   388     5
  387   386   388     5
  386   388   389     5

[ dihedrals ]
; ai	aj	ak	al	funct	phi0	cp	mult
    1     2     3     4     9
    1     2     3     5     9
    1     2     3     6     9
    2     3     6     7     9
    2     3     6     8     9
    2     3     6    28     9
    4     3     6     7     9
    4     3     6     8     9
    4     3     6    28     9
    5     3     6     7     9
    5     3     6     8     9
    5     3     6    28     9
    3     6     8     9     9
    7     6     8     9     9
    3     6    28    25     9
    3     6    28    29     9
    3     6    28    30     9
    7     6    28    25     9
    7     6    28    29     9
    7     6    28    30     9
    8     6    28    25     9
    8     6    28    29     9
    8     6    28    30     9
    9     8     6    28     9
    6     8     9    10     9
    6     8     9    11     9
    6     8     9    25     9
    8     9    11    12     9
    8     9    11    14     9
   10     9    11    12     9
   10     9    11    14     9
    8     9    25    26     9
    8     9    25    27     9
    8     9    25    28     9
   10     9    25    26     9
   10     9    25    27     9
   10     9    25    28     9
   11     9    25    26     9
   11     9    25    27     9
   11     9    25    28     9
   12    11     9    25     9
   14    11     9    25     9
    9    11    12    13     9
    9    11    12    20     9
   14    11    12    20     9
    9    11    14    15     9
    9    11    14    16     9
   12    11    14    15     9
   12    11    14    16     9
   13    12    11    14     9
   11    12    20    18     9
   11    12    20    21     9
   13    12    20    18     9
   13    12    20    21     9
   11    14    16    17     9
   11    14    16    18     9
   15    14    16    17     9
   15    14    16    18     9
   14    16    18    19     9
   14    16    18    20     9
   17    16    18    19     9
   17    16    18    20     9
   16    18    20    21     9
   19    18    20    21     9
   12    20    18    16     9
   12    20    18    19     9
   12    20    21    22     9
   12    20    21    23     9
   12    20    21    24     9
   18    20    21    22     9
   18    20    21    23     9
   18    20    21    24     9
    9    25    28    29     9
    9    25    28    30     9
   26    25    28    29     9
   26    25    28    30     9
   27    25    28    29     9
   27    25    28    30     9
    6    28    25     9     9
    6    28    25    26     9
    6    28    25    27     9
    6    28    30    31     9
   25    28    30    31     9
   29    28    30    31     9
   28    30    31    32     9
   28    30    31    33     9
   28    30    31    34     9
   30    31    34    35     9
   32    31    34    35     9
   33    31    34    35     9
   31    34    35    36     9
   31    34    35    37     9
   31    34    35    38     9
   34    35    38    39     9
   34    35    38    40     9
   34    35    38    60     9
   36    35    38    39     9
   36    35    38    40     9
   36    35    38    60     9
   37    35    38    39     9
   37    35    38    40     9
   37    35    38    60     9
   35    38    40    41     9
   39    38    40    41     9
   35    38    60    57     9
   35    38    60    61     9
   35    38    60    62     9
   39    38    60    57     9
   39    38    60    61     9
   39    38    60    62     9
   40    38    60    57     9
   40    38    60    61     9
   40    38    60    62     9
   41    40    38    60     9
   38    40    41    42     9
   38    40    41    43     9
   38    40    41    57     9
   40    41    43    44     9
   40    41    43    46     9
   42    41    43    44     9
   42    41    43    46     9
   40    41    57    58     9
   40    41    57    59     9
   40    41    57    60     9
   42    41    57    58     9
   42    41    57    59     9
   42    41    57    60     9
   43    41    57    58     9
   43    41    57    59     9
   43    41    57    60     9
   44    43    41    57     9
   46    43    41    57     9
   41    43    44    45     9
   41    43    44    52     9
   46    43    44    52     9
   41    43    46    47     9
   41    43    46    48     9
   44    43    46    47     9
   44    43    46    48     9
   45    44    43    46     9
   43    44    52    50     9
   43    44    52    53     9
   45    44    52    50     9
   45    44    52    53     9
   43    46    48    49     9
   43    46    48    50     9
   47    46    48    49     9
   47    46    48    50     9
   46    48    50    51     9
   46    48    50    52     9
   49    48    50    51     9
   49    48    50    52     9
   48    50    52    53     9
   51    50    52    53     9
   44    52    50    48     9
   44    52    50    51     9
   44    52    53    54     9
   44    52    53    55     9
   44    52    53    56     9
   50    52    53    54     9
   50    52    53    55     9
   50    52    53    56     9
   41    57    60    61     9
   41    57    60    62     9
   58    57    60    61     9
   58    57    60    62     9
   59    57    60    61     9
   59    57    60    62     9
   38    60    57    41     9
   38    60    57    58     9
   38    60    57    59     9
   38    60    62    63     9
   57    60    62    63     9
   61    60    62    63     9
   60    62    63    64     9
   60    62    63    65     9
   60    62    63    66     9
   62    63    66    67     9
   64    63    66    67     9
   65    63    66    67     9
   63    66    67    68     9
   63    66    67    69     9
   63    66    67    70     9
   66    67    70    71     9
   66    67    70    72     9
   66    67    70    92     9
   68    67    70    71     9
   68    67    70    72     9
   68    67    70    92     9
   69    67    70    71     9
   69    67    70    72     9
   69    67    70    92     9
   67    70    72    73     9
   71    70    72    73     9
   67    70    92    89     9
   67    70    92    93     9
   67    70    92    94     9
   71    70    92    89     9
   71    70    92    93     9
   71    70    92    94     9
   72    70    92    89     9
   72    70    92    93     9
   72    70    92    94     9
   73    72    70    92     9
   70    72    73    74     9
   70    72    73    75     9
   70    72    73    89     9
   72    73    75    78     9
   72    73    75    84     9
   74    73    75    78     9
   74    73    75    84     9
   72    73    89    90     9
   72    73    89    91     9
   72    73    89    92     9
   74    73    89    90     9
   74    73    89    91     9
   74    73    89    92     9
   75    73    89    90     9
   75    73    89    91     9
   75    73    89    92     9
   78    75    73    89     9
   84    75    73    89     9
   73    75    78    77     9
   73    75    78    79     9
   73    75    84    76     9
   73    75    84    83     9
   78    75    84    83     9
   77    76    84    83     9
   77    76    85    80     9
   77    76    85    86     9
   84    76    85    86     9
   78    77    76    84     9
   78    77    76    85     9
   76    77    78    79     9
   77    78    75    84     9
   79    78    75    84     9
   75    78    77    76     9
   81    80    85    86     9
   82    81    80    85     9
   83    81    80    85     9
   80    81    83    84     9
   82    81    83    84     9
   76    84    75    78     9
   75    84    76    77     9
   75    84    76    85     9
   83    84    76    85     9
   75    84    83    81     9
   76    84    83    81     9
   80    85    76    84     9
   76    85    80    81     9
   76    85    86    87     9
   76    85    86    88     9
   80    85    86    87     9
   80    85    86    88     9
   73    89    92    93     9
   73    89    92    94     9
   90    89    92    93     9
   90    89    92    94     9
   91    89    92    93     9
   91    89    92    94     9
   70    92    89    73     9
   70    92    89    90     9
   70    92    89    91     9
   70    92    94    95     9
   89    92    94    95     9
   93    92    94    95     9
   92    94    95    96     9
   92    94    95    97     9
   92    94    95    98     9
   94    95    98    99     9
   96    95    98    99     9
   97    95    98    99     9
   95    98    99   100     9
   95    98    99   101     9
   95    98    99   102     9
   98    99   102   103     9
   98    99   102   104     9
   98    99   102   125     9
  100    99   102   103     9
  100    99   102   104     9
  100    99   102   125     9
  101    99   102   103     9
  101    99   102   104     9
  101    99   102   125     9
   99   102   104   105     9
  103   102   104   105     9
   99   102   125   122     9
   99   102   125   126     9
   99   102   125   127     9
  103   102   125   122     9
  103   102   125   126     9
  103   102   125   127     9
  104   102   125   122     9
  104   102   125   126     9
  104   102   125   127     9
  105   104   102   125     9
  102   104   105   106     9
  102   104   105   107     9
  102   104   105   122     9
  104   105   107   108     9
  104   105   107   120     9
  106   105   107   108     9
  106   105   107   120     9
  104   105   122   123     9
  104   105   122   124     9
  104   105   122   125     9
  106   105   122   123     9
  106   105   122   124     9
  106   105   122   125     9
  107   105   122   123     9
  107   105   122   124     9
  107   105   122   125     9
  108   107   105   122     9
  120   107   105   122     9
  105   107   108   112     9
  105   107   108   118     9
  105   107   120   119     9
  105   107   120   121     9
  108   107   120   119     9
  108   107   120   121     9
  112   108   107   120     9
  118   108   107   120     9
  107   108   112   113     9
  107   108   118   116     9
  107   108   118   119     9
  112   108   118   116     9
  112   108   118   119     9
  110   109   113   112     9
  110   109   113   114     9
  111   109   113   112     9
  111   109   113   114     9
  113   112   108   118     9
  108   112   113   109     9
  108   112   113   114     9
  109   113   114   115     9
  109   113   114   116     9
  112   113   114   115     9
  112   113   114   116     9
  113   114   116   117     9
  113   114   116   118     9
  115   114   116   117     9
  115   114   116   118     9
  114   116   118   119     9
  117   116   118   119     9
  108   118   116   114     9
  108   118   116   117     9
  108   118   119   120     9
  116   118   119   120     9
  118   119   120   121     9
  107   120   119   118     9
  105   122   125   126     9
  105   122   125   127     9
  123   122   125   126     9
  123   122   125   127     9
  124   122   125   126     9
  124   122   125   127     9
  102   125   122   105     9
  102   125   122   123     9
  102   125   122   124     9
  102   125   127   128     9
  122   125   127   128     9
  126   125   127   128     9
  125   127   128   129     9
  125   127   128   130     9
  125   127   128   131     9
  127   128   131   132     9
  129   128   131   132     9
  130   128   131   132     9
  128   131   132   133     9
  128   131   132   134     9
  128   131   132   135     9
  131   132   135   136     9
  131   132   135   137     9
  131   132   135   158     9
  133   132   135   136     9
  133   132   135   137     9
  133   132   135   158     9
  134   132   135   136     9
  134   132   135   137     9
  134   132   135   158     9
  132   135   137   138     9
  136   135   137   138     9
  132   135   158   155     9
  132   135   158   159     9
  132   135   158   160     9
  136   135   158   155     9
  136   135   158   159     9
  136   135   158   160     9
  137   135   158   155     9
  137   135   158   159     9
  137   135   158   160     9
  138   137   135   158     9
  135   137   138   139     9
  135   137   138   140     9
  135   137   138   155     9
  137   138   140   141     9
  137   138   140   153     9
  139   138   140   141     9
  139   138   140   153     9
  137   138   155   156     9
  137   138   155   157     9
  137   138   155   158     9
  139   138   155   156     9
  139   138   155   157     9
  139   138   155   158     9
  140   138   155   156     9
  140   138   155   157     9
  140   138   155   158     9
  141   140   138   155     9
  153   140   138   155     9
  138   140   141   145     9
  138   140   141   151     9
  138   140   153   152     9
  138   140   153   154     9
  141   140   153   152     9
  141   140   153   154     9
  145   141   140   153     9
  151   141   140   153     9
  140   141   145   146     9
  140   141   151   149     9
  140   141   151   152     9
  145   141   151   149     9
  145   141   151   152     9
  143   142   146   145     9
  143   142   146   147     9
  144   142   146   145     9
  144   142   146   147     9
  146   145   141   151     9
  141   145   146   142     9
  141   145   146   147     9
  142   146   147   148     9
  142   146   147   149     9
  145   146   147   148     9
  145   146   147   149     9
  146   147   149   150     9
  146   147   149   151     9
  148   147   149   150     9
  148   147   149   151     9
  147   149   151   152     9
  150   149   151   152     9
  141   151   149   147     9
  141   151   149   150     9
  141   151   152   153     9
  149   151   152   153     9
  151   152   153   154     9
  140   153   152   151     9
  138   155   158   159     9
  138   155   158   160     9
  156   155   158   159     9
  156   155   158   160     9
  157   155   158   159     9
  157   155   158   160     9
  135   158   155   138     9
  135   158   155   156     9
  135   158   155   157     9
  135   158   160   161     9
  155   158   160   161     9
  159   158   160   161     9
  158   160   161   162     9
  158   160   161   163     9
  158   160   161   164     9
  160   161   164   165     9
  162   161   164   165     9
  163   161   164   165     9
  161   164   165   166     9
  161   164   165   167     9
  161   164   165   168     9
  164   165   168   169     9
  164   165   168   170     9
  164   165   168   191     9
  166   165   168   169     9
  166   165   168   170     9
  166   165   168   191     9
  167   165   168   169     9
  167   165   168   170     9
  167   165   168   191     9
  165   168   170   171     9
  169   168   170   171     9
  165   168   191   188     9
  165   168   191   192     9
  165   168   191   193     9
  169   168   191   188     9
  169   168   191   192     9
  169   168   191   193     9
  170   168   191   188     9
  170   168   191   192     9
  170   168   191   193     9
  171   170   168   191     9
  168   170   171   172     9
  168   170   171   173     9
  168   170   171   188     9
  170   171   173   174     9
  170   171   173   186     9
  172   171   173   174     9
  172   171   173   186     9
  170   171   188   189     9
  170   171   188   190     9
  170   171   188   191     9
  172   171   188   189     9
  172   171   188   190     9
  172   171   188   191     9
  173   171   188   189     9
  173   171   188   190     9
  173   171   188   191     9
  174   173   171   188     9
  186   173   171   188     9
  171   173   174   178     9
  171   173   174   184     9
  171   173   186   185     9
  171   173   186   187     9
  174   173   186   185     9
  174   173   186   187     9
  178   174   173   186     9
  184   174   173   186     9
  173   174   178   179     9
  173   174   184   182     9
  173   174   184   185     9
  178   174   184   182     9
  178   174   184   185     9
  176   175   179   178     9
  176   175   179   180     9
  177   175   179   178     9
  177   175   179   180     9
  179   178   174   184     9
  174   178   179   175     9
  174   178   179   180     9
  175   179   180   181     9
  175   179   180   182     9
  178   179   180   181     9
  178   179   180   182     9
  179   180   182   183     9
  179   180   182   184     9
  181   180   182   183     9
  181   180   182   184     9
  180   182   184   185     9
  183   182   184   185     9
  174   184   182   180     9
  174   184   182   183     9
  174   184   185   186     9
  182   184   185   186     9
  184   185   186   187     9
  173   186   185   184     9
  171   188   191   192     9
  171   188   191   193     9
  189   188   191   192     9
  189   188   191   193     9
  190   188   191   192     9
  190   188   191   193     9
  168   191   188   171     9
  168   191   188   189     9
  168   191   188   190     9
  168   191   193   194     9
  188   191   193   194     9
  192   191   193   194     9
  191   193   194   195     9
  191   193   194   196     9
  191   193   194   197     9
  193   194   197   198     9
  195   194   197   198     9
  196   194   197   198     9
  194   197   198   199     9
  194   197   198   200     9
  194   197   198   201     9
  197   198   201   202     9
  197   198   201   203     9
  197   198   201   223     9
  199   198   201   202     9
  199   198   201   203     9
  199   198   201   223     9
  200   198   201   202     9
  200   198   201   203     9
  200   198   201   223     9
  198   201   203   204     9
  202   201   203   204     9
  198   201   223   220     9
  198   201   223   224     9
  198   201   223   225     9
  202   201   223   220     9
  202   201   223   224     9
  202   201   223   225     9
  203   201   223   220     9
  203   201   223   224     9
  203   201   223   225     9
  204   203   201   223     9
  201   203   204   205     9
  201   203   204   206     9
  201   203   204   220     9
  203   204   206   207     9
  203   204   206   209     9
  205   204   206   207     9
  205   204   206   209     9
  203   204   220   221     9
  203   204   220   222     9
  203   204   220   223     9
  205   204   220   221     9
  205   204   220   222     9
  205   204   220   223     9
  206   204   220   221     9
  206   204   220   222     9
  206   204   220   223     9
  207   206   204   220     9
  209   206   204   220     9
  204   206   207   208     9
  204   206   207   215     9
  209   206   207   215     9
  204   206   209   210     9
  204   206   209   211     9
  207   206   209   210     9
  207   206   209   211     9
  208   207   206   209     9
  206   207   215   213     9
  206   207   215   216     9
  208   207   215   213     9
  208   207   215   216     9
  206   209   211   212     9
  206   209   211   213     9
  210   209   211   212     9
  210   209   211   213     9
  209   211   213   214     9
  209   211   213   215     9
  212   211   213   214     9
  212   211   213   215     9
  211   213   215   216     9
  214   213   215   216     9
  207   215   213   211     9
  207   215   213   214     9
  207   215   216   217     9
  207   215   216   218     9
  207   215   216   219     9
  213   215   216   217     9
  213   215   216   218     9
  213   215   216   219     9
  204   220   223   224     9
  204   220   223   225     9
  221   220   223   224     9
  221   220   223   225     9
  222   220   223   224     9
  222   220   223   225     9
  201   223   220   204     9
  201   223   220   221     9
  201   223   220   222     9
  201   223   225   226     9
  220   223   225   226     9
  224   223   225   226     9
  223   225   226   227     9
  223   225   226   228     9
  223   225   226   229     9
  225   226   229   230     9
  227   226   229   230     9
  228   226   229   230     9
  226   229   230   231     9
  226   229   230   232     9
  226   229   230   233     9
  229   230   233   234     9
  229   230   233   235     9
  229   230   233   255     9
  231   230   233   234     9
  231   230   233   235     9
  231   230   233   255     9
  232   230   233   234     9
  232   230   233   235     9
  232   230   233   255     9
  230   233   235   236     9
  234   233   235   236     9
  230   233   255   252     9
  230   233   255   256     9
  230   233   255   257     9
  234   233   255   252     9
  234   233   255   256     9
  234   233   255   257     9
  235   233   255   252     9
  235   233   255   256     9
  235   233   255   257     9
  236   235   233   255     9
  233   235   236   237     9
  233   235   236   238     9
  233   235   236   252     9
  235   236   238   239     9
  235   236   238   241     9
  237   236   238   239     9
  237   236   238   241     9
  235   236   252   253     9
  235   236   252   254     9
  235   236   252   255     9
  237   236   252   253     9
  237   236   252   254     9
  237   236   252   255     9
  238   236   252   253     9
  238   236   252   254     9
  238   236   252   255     9
  239   238   236   252     9
  241   238   236   252     9
  236   238   239   240     9
  236   238   239   247     9
  241   238   239   247     9
  236   238   241   242     9
  236   238   241   243     9
  239   238   241   242     9
  239   238   241   243     9
  240   239   238   241     9
  238   239   247   245     9
  238   239   247   248     9
  240   239   247   245     9
  240   239   247   248     9
  238   241   243   244     9
  238   241   243   245     9
  242   241   243   244     9
  242   241   243   245     9
  241   243   245   246     9
  241   243   245   247     9
  244   243   245   246     9
  244   243   245   247     9
  243   245   247   248     9
  246   245   247   248     9
  239   247   245   243     9
  239   247   245   246     9
  239   247   248   249     9
  239   247   248   250     9
  239   247   248   251     9
  245   247   248   249     9
  245   247   248   250     9
  245   247   248   251     9
  236   252   255   256     9
  236   252   255   257     9
  253   252   255   256     9
  253   252   255   257     9
  254   252   255   256     9
  254   252   255   257     9
  233   255   252   236     9
  233   255   252   253     9
  233   255   252   254     9
  233   255   257   258     9
  252   255   257   258     9
  256   255   257   258     9
  255   257   258   259     9
  255   257   258   260     9
  255   257   258   261     9
  257   258   261   262     9
  259   258   261   262     9
  260   258   261   262     9
  258   261   262   263     9
  258   261   262   264     9
  258   261   262   265     9
  261   262   265   266     9
  261   262   265   267     9
  261   262   265   287     9
  263   262   265   266     9
  263   262   265   267     9
  263   262   265   287     9
  264   262   265   266     9
  264   262   265   267     9
  264   262   265   287     9
  262   265   267   268     9
  266   265   267   268     9
  262   265   287   284     9
  262   265   287   288     9
  262   265   287   289     9
  266   265   287   284     9
  266   265   287   288     9
  266   265   287   289     9
  267   265   287   284     9
  267   265   287   288     9
  267   265   287   289     9
  268   267   265   287     9
  265   267   268   269     9
  265   267   268   270     9
  265   267   268   284     9
  267   268   270   273     9
  267   268   270   279     9
  269   268   270   273     9
  269   268   270   279     9
  267   268   284   285     9
  267   268   284   286     9
  267   268   284   287     9
  269   268   284   285     9
  269   268   284   286     9
  269   268   284   287     9
  270   268   284   285     9
  270   268   284   286     9
  270   268   284   287     9
  273   270   268   284     9
  279   270   268   284     9
  268   270   273   272     9
  268   270   273   274     9
  268   270   279   271     9
  268   270   279   278     9
  273   270   279   278     9
  272   271   279   278     9
  272   271   280   275     9
  272   271   280   281     9
  279   271   280   281     9
  273   272   271   279     9
  273   272   271   280     9
  271   272   273   274     9
  272   273   270   279     9
  274   273   270   279     9
  270   273   272   271     9
  276   275   280   281     9
  277   276   275   280     9
  278   276   275   280     9
  275   276   278   279     9
  277   276   278   279     9
  271   279   270   273     9
  270   279   271   272     9
  270   279   271   280     9
  278   279   271   280     9
  270   279   278   276     9
  271   279   278   276     9
  275   280   271   279     9
  271   280   275   276     9
  271   280   281   282     9
  271   280   281   283     9
  275   280   281   282     9
  275   280   281   283     9
  268   284   287   288     9
  268   284   287   289     9
  285   284   287   288     9
  285   284   287   289     9
  286   284   287   288     9
  286   284   287   289     9
  265   287   284   268     9
  265   287   284   285     9
  265   287   284   286     9
  265   287   289   290     9
  284   287   289   290     9
  288   287   289   290     9
  287   289   290   291     9
  287   289   290   292     9
  287   289   290   293     9
  289   290   293   294     9
  291   290   293   294     9
  292   290   293   294     9
  290   293   294   295     9
  290   293   294   296     9
  290   293   294   297     9
  293   294   297   298     9
  293   294   297   299     9
  293   294   297   320     9
  295   294   297   298     9
  295   294   297   299     9
  295   294   297   320     9
  296   294   297   298     9
  296   294   297   299     9
  296   294   297   320     9
  294   297   299   300     9
  298   297   299   300     9
  294   297   320   317     9
  294   297   320   321     9
  294   297   320   322     9
  298   297   320   317     9
  298   297   320   321     9
  298   297   320   322     9
  299   297   320   317     9
  299   297   320   321     9
  299   297   320   322     9
  300   299   297   320     9
  297   299   300   301     9
  297   299   300   302     9
  297   299   300   317     9
  299   300   302   303     9
  299   300   302   315     9
  301   300   302   303     9
  301   300   302   315     9
  299   300   317   318     9
  299   300   317   319     9
  299   300   317   320     9
  301   300   317   318     9
  301   300   317   319     9
  301   300   317   320     9
  302   300   317   318     9
  302   300   317   319     9
  302   300   317   320     9
  303   302   300   317     9
  315   302   300   317     9
  300   302   303   307     9
  300   302   303   313     9
  300   302   315   314     9
  300   302   315   316     9
  303   302   315   314     9
  303   302   315   316     9
  307   303   302   315     9
  313   303   302   315     9
  302   303   307   308     9
  302   303   313   311     9
  302   303   313   314     9
  307   303   313   311     9
  307   303   313   314     9
  305   304   308   307     9
  305   304   308   309     9
  306   304   308   307     9
  306   304   308   309     9
  308   307   303   313     9
  303   307   308   304     9
  303   307   308   309     9
  304   308   309   310     9
  304   308   309   311     9
  307   308   309   310     9
  307   308   309   311     9
  308   309   311   312     9
  308   309   311   313     9
  310   309   311   312     9
  310   309   311   313     9
  309   311   313   314     9
  312   311   313   314     9
  303   313   311   309     9
  303   313   311   312     9
  303   313   314   315     9
  311   313   314   315     9
  313   314   315   316     9
  302   315   314   313     9
  300   317   320   321     9
  300   317   320   322     9
  318   317   320   321     9
  318   317   320   322     9
  319   317   320   321     9
  319   317   320   322     9
  297   320   317   300     9
  297   320   317   318     9
  297   320   317   319     9
  297   320   322   323     9
  317   320   322   323     9
  321   320   322   323     9
  320   322   323   324     9
  320   322   323   325     9
  320   322   323   326     9
  322   323   326   327     9
  324   323   326   327     9
  325   323   326   327     9
  323   326   327   328     9
  323   326   327   329     9
  323   326   327   330     9
  326   327   330   331     9
  326   327   330   332     9
  326   327   330   353     9
  328   327   330   331     9
  328   327   330   332     9
  328   327   330   353     9
  329   327   330   331     9
  329   327   330   332     9
  329   327   330   353     9
  327   330   332   333     9
  331   330   332   333     9
  327   330   353   350     9
  327   330   353   354     9
  327   330   353   355     9
  331   330   353   350     9
  331   330   353   354     9
  331   330   353   355     9
  332   330   353   350     9
  332   330   353   354     9
  332   330   353   355     9
  333   332   330   353     9
  330   332   333   334     9
  330   332   333   335     9
  330   332   333   350     9
  332   333   335   336     9
  332   333   335   348     9
  334   333   335   336     9
  334   333   335   348     9
  332   333   350   351     9
  332   333   350   352     9
  332   333   350   353     9
  334   333   350   351     9
  334   333   350   352     9
  334   333   350   353     9
  335   333   350   351     9
  335   333   350   352     9
  335   333   350   353     9
  336   335   333   350     9
  348   335   333   350     9
  333   335   336   340     9
  333   335   336   346     9
  333   335   348   347     9
  333   335   348   349     9
  336   335   348   347     9
  336   335   348   349     9
  340   336   335   348     9
  346   336   335   348     9
  335   336   340   341     9
  335   336   346   344     9
  335   336   346   347     9
  340   336   346   344     9
  340   336   346   347     9
  338   337   341   340     9
  338   337   341   342     9
  339   337   341   340     9
  339   337   341   342     9
  341   340   336   346     9
  336   340   341   337     9
  336   340   341   342     9
  337   341   342   343     9
  337   341   342   344     9
  340   341   342   343     9
  340   341   342   344     9
  341   342   344   345     9
  341   342   344   346     9
  343   342   344   345     9
  343   342   344   346     9
  342   344   346   347     9
  345   344   346   347     9
  336   346   344   342     9
  336   346   344   345     9
  336   346   347   348     9
  344   346   347   348     9
  346   347   348   349     9
  335   348   347   346     9
  333   350   353   354     9
  333   350   353   355     9
  351   350   353   354     9
  351   350   353   355     9
  352   350   353   354     9
  352   350   353   355     9
  330   353   350   333     9
  330   353   350   351     9
  330   353   350   352     9
  330   353   355   356     9
  350   353   355   356     9
  354   353   355   356     9
  353   355   356   357     9
  353   355   356   358     9
  353   355   356   359     9
  355   356   359   360     9
  357   356   359   360     9
  358   356   359   360     9
  356   359   360   361     9
  356   359   360   362     9
  356   359   360   363     9
  359   360   363   364     9
  359   360   363   365     9
  359   360   363   386     9
  361   360   363   364     9
  361   360   363   365     9
  361   360   363   386     9
  362   360   363   364     9
  362   360   363   365     9
  362   360   363   386     9
  360   363   365   366     9
  364   363   365   366     9
  360   363   386   383     9
  360   363   386   387     9
  360   363   386   388     9
  364   363   386   383     9
  364   363   386   387     9
  364   363   386   388     9
  365   363   386   383     9
  365   363   386   387     9
  365   363   386   388     9
  366   365   363   386     9
  363   365   366   367     9
  363   365   366   368     9
  363   365   366   383     9
  365   366   368   369     9
  365   366   368   381     9
  367   366   368   369     9
  367   366   368   381     9
  365   366   383   384     9
  365   366   383   385     9
  365   366   383   386     9
  367   366   383   384     9
  367   366   383   385     9
  367   366   383   386     9
  368   366   383   384     9
  368   366   383   385     9
  368   366   383   386     9
  369   368   366   383     9
  381   368   366   383     9
  366   368   369   373     9
  366   368   369   379     9
  366   368   381   380     9
  366   368   381   382     9
  369   368   381   380     9
  369   368   381   382     9
  373   369   368   381     9
  379   369   368   381     9
  368   369   373   374     9
  368   369   379   377     9
  368   369   379   380     9
  373   369   379   377     9
  373   369   379   380     9
  371   370   374   373     9
  371   370   374   375     9
  372   370   374   373     9
  372   370   374   375     9
  374   373   369   379     9
  369   373   374   370     9
  369   373   374   375     9
  370   374   375   376     9
  370   374   375   377     9
  373   374   375   376     9
  373   374   375   377     9
  374   375   377   378     9
  374   375   377   379     9
  376   375   377   378     9
  376   375   377   379     9
  375   377   379   380     9
  378   377   379   380     9
  369   379   377   375     9
  369   379   377   378     9
  369   379   380   381     9
  377   379   380   381     9
  379   380   381   382     9
  368   381   380   379     9
  366   383   386   387     9
  366   383   386   388     9
  384   383   386   387     9
  384   383   386   388     9
  385   383   386   387     9
  385   383   386   388     9
  363   386   383   366     9
  363   386   383   384     9
  363   386   383   385     9
  363   386   388   389     9
  383   386   388   389     9
  387   386   388   389     9

[ dihedrals ]
; ai	aj	ak	al	funct	q0	cq
   14    11    16    15     2
   18    16    20    19     2
   20    18    12    21     2
   46    43    48    47     2
   50    48    52    51     2
   52    50    44    53     2
   85    80    76    86     2
   86    85    87    88     2
  109   110   113   111     2
  113   112   114   109     2
  116   114   118   117     2
  142   143   146   144     2
  146   145   147   142     2
  149   147   151   150     2
  175   176   179   177     2
  179   178   180   175     2
  182   180   184   183     2
  209   206   211   210     2
  213   211   215   214     2
  215   213   207   216     2
  241   238   243   242     2
  245   243   247   246     2
  247   245   239   248     2
  280   275   271   281     2
  281   280   282   283     2
  304   305   308   306     2
  308   307   309   304     2
  311   309   313   312     2
  337   338   341   339     2
  341   340   342   337     2
  344   342   346   345     2
  370   371   374   372     2
  374   373   375   370     2
  377   375   379   378     2

#ifdef POSRES
[ position_restraints ]
    2     1    POSRES_FC_BB    POSRES_FC_BB    POSRES_FC_BB   
    3     1    POSRES_FC_BB    POSRES_FC_BB    POSRES_FC_BB   
    6     1    POSRES_FC_BB    POSRES_FC_BB    POSRES_FC_BB   
    8     1    POSRES_FC_SC    POSRES_FC_SC    POSRES_FC_SC   
    9     1    POSRES_FC_SC    POSRES_FC_SC    POSRES_FC_SC   
   11     1    POSRES_FC_SC    POSRES_FC_SC    POSRES_FC_SC   
   12     1    POSRES_FC_SC    POSRES_FC_SC    POSRES_FC_SC   
   14     1    POSRES_FC_SC    POSRES_FC_SC    POSRES_FC_SC   
   15     1    POSRES_FC_SC    POSRES_FC_SC    POSRES_FC_SC   
   16     1    POSRES_FC_SC    POSRES_FC_SC    POSRES_FC_SC   
   18     1    POSRES_FC_SC    POSRES_FC_SC    POSRES_FC_SC   
   19     1    POSRES_FC_SC    POSRES_FC_SC    POSRES_FC_SC   
   20     1    POSRES_FC_SC    POSRES_FC_SC    POSRES_FC_SC   
   21     1    POSRES_FC_SC    POSRES_FC_SC    POSRES_FC_SC   
   25     1    POSRES_FC_SC    POSRES_FC_SC    POSRES_FC_SC   
   28     1    POSRES_FC_BB    POSRES_FC_BB    POSRES_FC_BB   
   30     1    POSRES_FC_BB    POSRES_FC_BB    POSRES_FC_BB   
   31     1    POSRES_FC_BB    POSRES_FC_BB    POSRES_FC_BB   
   32     1    POSRES_FC_BB    POSRES_FC_BB    POSRES_FC_BB   
   33     1    POSRES_FC_BB    POSRES_FC_BB    POSRES_FC_BB   
   34     1    POSRES_FC_BB    POSRES_FC_BB    POSRES_FC_BB   
   35     1    POSRES_FC_BB    POSRES_FC_BB    POSRES_FC_BB   
   38     1    POSRES_FC_BB    POSRES_FC_BB    POSRES_FC_BB   
   40     1    POSRES_FC_SC    POSRES_FC_SC    POSRES_FC_SC   
   41     1    POSRES_FC_SC    POSRES_FC_SC    POSRES_FC_SC   
   43     1    POSRES_FC_SC    POSRES_FC_SC    POSRES_FC_SC   
   44     1    POSRES_FC_SC    POSRES_FC_SC    POSRES_FC_SC   
   46     1    POSRES_FC_SC    POSRES_FC_SC    POSRES_FC_SC   
   47     1    POSRES_FC_SC    POSRES_FC_SC    POSRES_FC_SC   
   48     1    POSRES_FC_SC    POSRES_FC_SC    POSRES_FC_SC   
   50     1    POSRES_FC_SC    POSRES_FC_SC    POSRES_FC_SC   
   51     1    POSRES_FC_SC    POSRES_FC_SC    POSRES_FC_SC   
   52     1    POSRES_FC_SC    POSRES_FC_SC    POSRES_FC_SC   
   53     1    POSRES_FC_SC    POSRES_FC_SC    POSRES_FC_SC   
   57     1    POSRES_FC_SC    POSRES_FC_SC    POSRES_FC_SC   
   60     1    POSRES_FC_BB    POSRES_FC_BB    POSRES_FC_BB   
   62     1    POSRES_FC_BB    POSRES_FC_BB    POSRES_FC_BB   
   63     1    POSRES_FC_BB    POSRES_FC_BB    POSRES_FC_BB   
   64     1    POSRES_FC_BB    POSRES_FC_BB    POSRES_FC_BB   
   65     1    POSRES_FC_BB    POSRES_FC_BB    POSRES_FC_BB   
   66     1    POSRES_FC_BB    POSRES_FC_BB    POSRES_FC_BB   
   67     1    POSRES_FC_BB    POSRES_FC_BB    POSRES_FC_BB   
   70     1    POSRES_FC_BB    POSRES_FC_BB    POSRES_FC_BB   
   72     1    POSRES_FC_SC    POSRES_FC_SC    POSRES_FC_SC   
   73     1    POSRES_FC_SC    POSRES_FC_SC    POSRES_FC_SC   
   75     1    POSRES_FC_SC    POSRES_FC_SC    POSRES_FC_SC   
   76     1    POSRES_FC_SC    POSRES_FC_SC    POSRES_FC_SC   
   77     1    POSRES_FC_SC    POSRES_FC_SC    POSRES_FC_SC   
   78     1    POSRES_FC_SC    POSRES_FC_SC    POSRES_FC_SC   
   80     1    POSRES_FC_SC    POSRES_FC_SC    POSRES_FC_SC   
   81     1    POSRES_FC_SC    POSRES_FC_SC    POSRES_FC_SC   
   83     1    POSRES_FC_SC    POSRES_FC_SC    POSRES_FC_SC   
   84     1    POSRES_FC_SC    POSRES_FC_SC    POSRES_FC_SC   
   85     1    POSRES_FC_SC    POSRES_FC_SC    POSRES_FC_SC   
   86     1    POSRES_FC_SC    POSRES_FC_SC    POSRES_FC_SC   
   89     1    POSRES_FC_SC    POSRES_FC_SC    POSRES_FC_SC   
   92     1    POSRES_FC_BB    POSRES_FC_BB    POSRES_FC_BB   
   94     1    POSRES_FC_BB    POSRES_FC_BB    POSRES_FC_BB   
   95     1    POSRES_FC_BB    POSRES_FC_BB    POSRES_FC_BB   
   96     1    POSRES_FC_BB    POSRES_FC_BB    POSRES_FC_BB   
   97     1    POSRES_FC_BB    POSRES_FC_BB    POSRES_FC_BB   
   98     1    POSRES_FC_BB    POSRES_FC_BB    POSRES_FC_BB   
   99     1    POSRES_FC_BB    POSRES_FC_BB    POSRES_FC_BB   
  102     1    POSRES_FC_BB    POSRES_FC_BB    POSRES_FC_BB   
  104     1    POSRES_FC_SC    POSRES_FC_SC    POSRES_FC_SC   
  105     1    POSRES_FC_SC    POSRES_FC_SC    POSRES_FC_SC   
  107     1    POSRES_FC_SC    POSRES_FC_SC    POSRES_FC_SC   
  108     1    POSRES_FC_SC    POSRES_FC_SC    POSRES_FC_SC   
  109     1    POSRES_FC_SC    POSRES_FC_SC    POSRES_FC_SC   
  112     1    POSRES_FC_SC    POSRES_FC_SC    POSRES_FC_SC   
  113     1    POSRES_FC_SC    POSRES_FC_SC    POSRES_FC_SC   
  114     1    POSRES_FC_SC    POSRES_FC_SC    POSRES_FC_SC   
  116     1    POSRES_FC_SC    POSRES_FC_SC    POSRES_FC_SC   
  117     1    POSRES_FC_SC    POSRES_FC_SC    POSRES_FC_SC   
  118     1    POSRES_FC_SC    POSRES_FC_SC    POSRES_FC_SC   
  119     1    POSRES_FC_SC    POSRES_FC_SC    POSRES_FC_SC   
  120     1    POSRES_FC_SC    POSRES_FC_SC    POSRES_FC_SC   
  122     1    POSRES_FC_SC    POSRES_FC_SC    POSRES_FC_SC   
  125     1    POSRES_FC_BB    POSRES_FC_BB    POSRES_FC_BB   
  127     1    POSRES_FC_BB    POSRES_FC_BB    POSRES_FC_BB   
  128     1    POSRES_FC_BB    POSRES_FC_BB    POSRES_FC_BB   
  129     1    POSRES_FC_BB    POSRES_FC_BB    POSRES_FC_BB   
  130     1    POSRES_FC_BB    POSRES_FC_BB    POSRES_FC_BB   
  131     1    POSRES_FC_BB    POSRES_FC_BB    POSRES_FC_BB   
  132     1    POSRES_FC_BB    POSRES_FC_BB    POSRES_FC_BB   
  135     1    POSRES_FC_BB    POSRES_FC_BB    POSRES_FC_BB   
  137     1    POSRES_FC_SC    POSRES_FC_SC    POSRES_FC_SC   
  138     1    POSRES_FC_SC    POSRES_FC_SC    POSRES_FC_SC   
  140     1    POSRES_FC_SC    POSRES_FC_SC    POSRES_FC_SC   
  141     1    POSRES_FC_SC    POSRES_FC_SC    POSRES_FC_SC   
  142     1    POSRES_FC_SC    POSRES_FC_SC    POSRES_FC_SC   
  145     1    POSRES_FC_SC    POSRES_FC_SC    POSRES_FC_SC   
  146     1    POSRES_FC_SC    POSRES_FC_SC    POSRES_FC_SC   
  147     1    POSRES_FC_SC    POSRES_FC_SC    POSRES_FC_SC   
  149     1    POSRES_FC_SC    POSRES_FC_SC    POSRES_FC_SC   
  150     1    POSRES_FC_SC    POSRES_FC_SC    POSRES_FC_SC   
  151     1    POSRES_FC_SC    POSRES_FC_SC    POSRES_FC_SC   
  152     1    POSRES_FC_SC    POSRES_FC_SC    POSRES_FC_SC   
  153     1    POSRES_FC_SC    POSRES_FC_SC    POSRES_FC_SC   
  155     1    POSRES_FC_SC    POSRES_FC_SC    POSRES_FC_SC   
  158     1    POSRES_FC_BB    POSRES_FC_BB    POSRES_FC_BB   
  160     1    POSRES_FC_BB    POSRES_FC_BB    POSRES_FC_BB   
  161     1    POSRES_FC_BB    POSRES_FC_BB    POSRES_FC_BB   
  162     1    POSRES_FC_BB    POSRES_FC_BB    POSRES_FC_BB   
  163     1    POSRES_FC_BB    POSRES_FC_BB    POSRES_FC_BB   
  164     1    POSRES_FC_BB    POSRES_FC_BB    POSRES_FC_BB   
  165     1    POSRES_FC_BB    POSRES_FC_BB    POSRES_FC_BB   
  168     1    POSRES_FC_BB    POSRES_FC_BB    POSRES_FC_BB   
  170     1    POSRES_FC_SC    POSRES_FC_SC    POSRES_FC_SC   
  171     1    POSRES_FC_SC    POSRES_FC_SC    POSRES_FC_SC   
  173     1    POSRES_FC_SC    POSRES_FC_SC    POSRES_FC_SC   
  174     1    POSRES_FC_SC    POSRES_FC_SC    POSRES_FC_SC   
  175     1    POSRES_FC_SC    POSRES_FC_SC    POSRES_FC_SC   
  178     1    POSRES_FC_SC    POSRES_FC_SC    POSRES_FC_SC   
  179     1    POSRES_FC_SC    POSRES_FC_SC    POSRES_FC_SC   
  180     1    POSRES_FC_SC    POSRES_FC_SC    POSRES_FC_SC   
  182     1    POSRES_FC_SC    POSRES_FC_SC    POSRES_FC_SC   
  183     1    POSRES_FC_SC    POSRES_FC_SC    POSRES_FC_SC   
  184     1    POSRES_FC_SC    POSRES_FC_SC    POSRES_FC_SC   
  185     1    POSRES_FC_SC    POSRES_FC_SC    POSRES_FC_SC   
  186     1    POSRES_FC_SC    POSRES_FC_SC    POSRES_FC_SC   
  188     1    POSRES_FC_SC    POSRES_FC_SC    POSRES_FC_SC   
  191     1    POSRES_FC_BB    POSRES_FC_BB    POSRES_FC_BB   
  193     1    POSRES_FC_BB    POSRES_FC_BB    POSRES_FC_BB   
  194     1    POSRES_FC_BB    POSRES_FC_BB    POSRES_FC_BB   
  195     1    POSRES_FC_BB    POSRES_FC_BB    POSRES_FC_BB   
  196     1    POSRES_FC_BB    POSRES_FC_BB    POSRES_FC_BB   
  197     1    POSRES_FC_BB    POSRES_FC_BB    POSRES_FC_BB   
  198     1    POSRES_FC_BB    POSRES_FC_BB    POSRES_FC_BB   
  201     1    POSRES_FC_BB    POSRES_FC_BB    POSRES_FC_BB   
  203     1    POSRES_FC_SC    POSRES_FC_SC    POSRES_FC_SC   
  204     1    POSRES_FC_SC    POSRES_FC_SC    POSRES_FC_SC   
  206     1    POSRES_FC_SC    POSRES_FC_SC    POSRES_FC_SC   
  207     1    POSRES_FC_SC    POSRES_FC_SC    POSRES_FC_SC   
  209     1    POSRES_FC_SC    POSRES_FC_SC    POSRES_FC_SC   
  210     1    POSRES_FC_SC    POSRES_FC_SC    POSRES_FC_SC   
  211     1    POSRES_FC_SC    POSRES_FC_SC    POSRES_FC_SC   
  213     1    POSRES_FC_SC    POSRES_FC_SC    POSRES_FC_SC   
  214     1    POSRES_FC_SC    POSRES_FC_SC    POSRES_FC_SC   
  215     1    POSRES_FC_SC    POSRES_FC_SC    POSRES_FC_SC   
  216     1    POSRES_FC_SC    POSRES_FC_SC    POSRES_FC_SC   
  220     1    POSRES_FC_SC    POSRES_FC_SC    POSRES_FC_SC   
  223     1    POSRES_FC_BB    POSRES_FC_BB    POSRES_FC_BB   
  225     1    POSRES_FC_BB    POSRES_FC_BB    POSRES_FC_BB   
  226     1    POSRES_FC_BB    POSRES_FC_BB    POSRES_FC_BB   
  227     1    POSRES_FC_BB    POSRES_FC_BB    POSRES_FC_BB   
  228     1    POSRES_FC_BB    POSRES_FC_BB    POSRES_FC_BB   
  229     1    POSRES_FC_BB    POSRES_FC_BB    POSRES_FC_BB   
  230     1    POSRES_FC_BB    POSRES_FC_BB    POSRES_FC_BB   
  233     1    POSRES_FC_BB    POSRES_FC_BB    POSRES_FC_BB   
  235     1    POSRES_FC_SC    POSRES_FC_SC    POSRES_FC_SC   
  236     1    POSRES_FC_SC    POSRES_FC_SC    POSRES_FC_SC   
  238     1    POSRES_FC_SC    POSRES_FC_SC    POSRES_FC_SC   
  239     1    POSRES_FC_SC    POSRES_FC_SC    POSRES_FC_SC   
  241     1    POSRES_FC_SC    POSRES_FC_SC    POSRES_FC_SC   
  242     1    POSRES_FC_SC    POSRES_FC_SC    POSRES_FC_SC   
  243     1    POSRES_FC_SC    POSRES_FC_SC    POSRES_FC_SC   
  245     1    POSRES_FC_SC    POSRES_FC_SC    POSRES_FC_SC   
  246     1    POSRES_FC_SC    POSRES_FC_SC    POSRES_FC_SC   
  247     1    POSRES_FC_SC    POSRES_FC_SC    POSRES_FC_SC   
  248     1    POSRES_FC_SC    POSRES_FC_SC    POSRES_FC_SC   
  252     1    POSRES_FC_SC    POSRES_FC_SC    POSRES_FC_SC   
  255     1    POSRES_FC_BB    POSRES_FC_BB    POSRES_FC_BB   
  257     1    POSRES_FC_BB    POSRES_FC_BB    POSRES_FC_BB   
  258     1    POSRES_FC_BB    POSRES_FC_BB    POSRES_FC_BB   
  259     1    POSRES_FC_BB    POSRES_FC_BB    POSRES_FC_BB   
  260     1    POSRES_FC_BB    POSRES_FC_BB    POSRES_FC_BB   
  261     1    POSRES_FC_BB    POSRES_FC_BB    POSRES_FC_BB   
  262     1    POSRES_FC_BB    POSRES_FC_BB    POSRES_FC_BB   
  265     1    POSRES_FC_BB    POSRES_FC_BB    POSRES_FC_BB   
  267     1    POSRES_FC_SC    POSRES_FC_SC    POSRES_FC_SC   
  268     1    POSRES_FC_SC    POSRES_FC_SC    POSRES_FC_SC   
  270     1    POSRES_FC_SC    POSRES_FC_SC    POSRES_FC_SC   
  271     1    POSRES_FC_SC    POSRES_FC_SC    POSRES_FC_SC   
  272     1    POSRES_FC_SC    POSRES_FC_SC    POSRES_FC_SC   
  273     1    POSRES_FC_SC    POSRES_FC_SC    POSRES_FC_SC   
  275     1    POSRES_FC_SC    POSRES_FC_SC    POSRES_FC_SC   
  276     1    POSRES_FC_SC    POSRES_FC_SC    POSRES_FC_SC   
  278     1    POSRES_FC_SC    POSRES_FC_SC    POSRES_FC_SC   
  279     1    POSRES_FC_SC    POSRES_FC_SC    POSRES_FC_SC   
  280     1    POSRES_FC_SC    POSRES_FC_SC    POSRES_FC_SC   
  281     1    POSRES_FC_SC    POSRES_FC_SC    POSRES_FC_SC   
  284     1    POSRES_FC_SC    POSRES_FC_SC    POSRES_FC_SC   
  287     1    POSRES_FC_BB    POSRES_FC_BB    POSRES_FC_BB   
  289     1    POSRES_FC_BB    POSRES_FC_BB    POSRES_FC_BB   
  290     1    POSRES_FC_BB    POSRES_FC_BB    POSRES_FC_BB   
  291     1    POSRES_FC_BB    POSRES_FC_BB    POSRES_FC_BB   
  292     1    POSRES_FC_BB    POSRES_FC_BB    POSRES_FC_BB   
  293     1    POSRES_FC_BB    POSRES_FC_BB    POSRES_FC_BB   
  294     1    POSRES_FC_BB    POSRES_FC_BB    POSRES_FC_BB   
  297     1    POSRES_FC_BB    POSRES_FC_BB    POSRES_FC_BB   
  299     1    POSRES_FC_SC    POSRES_FC_SC    POSRES_FC_SC   
  300     1    POSRES_FC_SC    POSRES_FC_SC    POSRES_FC_SC   
  302     1    POSRES_FC_SC    POSRES_FC_SC    POSRES_FC_SC   
  303     1    POSRES_FC_SC    POSRES_FC_SC    POSRES_FC_SC   
  304     1    POSRES_FC_SC    POSRES_FC_SC    POSRES_FC_SC   
  307     1    POSRES_FC_SC    POSRES_FC_SC    POSRES_FC_SC   
  308     1    POSRES_FC_SC    POSRES_FC_SC    POSRES_FC_SC   
  309     1    POSRES_FC_SC    POSRES_FC_SC    POSRES_FC_SC   
  311     1    POSRES_FC_SC    POSRES_FC_SC    POSRES_FC_SC   
  312     1    POSRES_FC_SC    POSRES_FC_SC    POSRES_FC_SC   
  313     1    POSRES_FC_SC    POSRES_FC_SC    POSRES_FC_SC   
  314     1    POSRES_FC_SC    POSRES_FC_SC    POSRES_FC_SC   
  315     1    POSRES_FC_SC    POSRES_FC_SC    POSRES_FC_SC   
  317     1    POSRES_FC_SC    POSRES_FC_SC    POSRES_FC_SC   
  320     1    POSRES_FC_BB    POSRES_FC_BB    POSRES_FC_BB   
  322     1    POSRES_FC_BB    POSRES_FC_BB    POSRES_FC_BB   
  323     1    POSRES_FC_BB    POSRES_FC_BB    POSRES_FC_BB   
  324     1    POSRES_FC_BB    POSRES_FC_BB    POSRES_FC_BB   
  325     1    POSRES_FC_BB    POSRES_FC_BB    POSRES_FC_BB   
  326     1    POSRES_FC_BB    POSRES_FC_BB    POSRES_FC_BB   
  327     1    POSRES_FC_BB    POSRES_FC_BB    POSRES_FC_BB   
  330     1    POSRES_FC_BB    POSRES_FC_BB    POSRES_FC_BB   
  332     1    POSRES_FC_SC    POSRES_FC_SC    POSRES_FC_SC   
  333     1    POSRES_FC_SC    POSRES_FC_SC    POSRES_FC_SC   
  335     1    POSRES_FC_SC    POSRES_FC_SC    POSRES_FC_SC   
  336     1    POSRES_FC_SC    POSRES_FC_SC    POSRES_FC_SC   
  337     1    POSRES_FC_SC    POSRES_FC_SC    POSRES_FC_SC   
  340     1    POSRES_FC_SC    POSRES_FC_SC    POSRES_FC_SC   
  341     1    POSRES_FC_SC    POSRES_FC_SC    POSRES_FC_SC   
  342     1    POSRES_FC_SC    POSRES_FC_SC    POSRES_FC_SC   
  344     1    POSRES_FC_SC    POSRES_FC_SC    POSRES_FC_SC   
  345     1    POSRES_FC_SC    POSRES_FC_SC    POSRES_FC_SC   
  346     1    POSRES_FC_SC    POSRES_FC_SC    POSRES_FC_SC   
  347     1    POSRES_FC_SC    POSRES_FC_SC    POSRES_FC_SC   
  348     1    POSRES_FC_SC    POSRES_FC_SC    POSRES_FC_SC   
  350     1    POSRES_FC_SC    POSRES_FC_SC    POSRES_FC_SC   
  353     1    POSRES_FC_BB    POSRES_FC_BB    POSRES_FC_BB   
  355     1    POSRES_FC_BB    POSRES_FC_BB    POSRES_FC_BB   
  356     1    POSRES_FC_BB    POSRES_FC_BB    POSRES_FC_BB   
  357     1    POSRES_FC_BB    POSRES_FC_BB    POSRES_FC_BB   
  358     1    POSRES_FC_BB    POSRES_FC_BB    POSRES_FC_BB   
  359     1    POSRES_FC_BB    POSRES_FC_BB    POSRES_FC_BB   
  360     1    POSRES_FC_BB    POSRES_FC_BB    POSRES_FC_BB   
  363     1    POSRES_FC_BB    POSRES_FC_BB    POSRES_FC_BB   
  365     1    POSRES_FC_SC    POSRES_FC_SC    POSRES_FC_SC   
  366     1    POSRES_FC_SC    POSRES_FC_SC    POSRES_FC_SC   
  368     1    POSRES_FC_SC    POSRES_FC_SC    POSRES_FC_SC   
  369     1    POSRES_FC_SC    POSRES_FC_SC    POSRES_FC_SC   
  370     1    POSRES_FC_SC    POSRES_FC_SC    POSRES_FC_SC   
  373     1    POSRES_FC_SC    POSRES_FC_SC    POSRES_FC_SC   
  374     1    POSRES_FC_SC    POSRES_FC_SC    POSRES_FC_SC   
  375     1    POSRES_FC_SC    POSRES_FC_SC    POSRES_FC_SC   
  377     1    POSRES_FC_SC    POSRES_FC_SC    POSRES_FC_SC   
  378     1    POSRES_FC_SC    POSRES_FC_SC    POSRES_FC_SC   
  379     1    POSRES_FC_SC    POSRES_FC_SC    POSRES_FC_SC   
  380     1    POSRES_FC_SC    POSRES_FC_SC    POSRES_FC_SC   
  381     1    POSRES_FC_SC    POSRES_FC_SC    POSRES_FC_SC   
  383     1    POSRES_FC_SC    POSRES_FC_SC    POSRES_FC_SC   
  386     1    POSRES_FC_BB    POSRES_FC_BB    POSRES_FC_BB   
  388     1    POSRES_FC_BB    POSRES_FC_BB    POSRES_FC_BB   
#endif
