[ 7 ]
1
[ 292 ]
3
[ 323 ]
4
[ 324 ]
37
[ 327 ]
44
[ 354 ]
2
[ 356 ]
7
30
[ 357 ]
43
[ 360 ]
42
48
61
[ 363 ]
64
[ 385 ]
33
[ 386 ]
21
28
[ 387 ]
5
8
26
[ 388 ]
24
27
[ 389 ]
22
23
35
38
59
62
[ 390 ]
9
25
36
39
40
[ 391 ]
45
47
52
[ 392 ]
63
[ 393 ]
41
[ 394 ]
46
50
66
[ 395 ]
56
[ 418 ]
34
[ 419 ]
51
[ 420 ]
10
18
19
31
[ 421 ]
6
11
[ 423 ]
32
55
[ 425 ]
20
65
[ 426 ]
49
54
67
82
[ 427 ]
53
[ 429 ]
60
[ 432 ]
84
[ 450 ]
16
[ 452 ]
15
[ 455 ]
89
90
[ 456 ]
14
77
86
[ 457 ]
57
58
69
[ 458 ]
83
85
[ 459 ]
70
76
87
[ 461 ]
79
[ 480 ]
17
[ 483 ]
13
29
[ 484 ]
106
[ 485 ]
71
[ 487 ]
73
[ 488 ]
68
[ 489 ]
81
93
[ 490 ]
126
[ 491 ]
72
[ 515 ]
121
[ 516 ]
12
[ 517 ]
122
[ 518 ]
74
88
[ 520 ]
91
[ 521 ]
75
[ 524 ]
78
141
[ 526 ]
159
206
[ 528 ]
163
166
185
[ 529 ]
207
[ 533 ]
127
[ 545 ]
105
[ 547 ]
119
123
[ 548 ]
124
[ 549 ]
94
[ 551 ]
92
120
135
[ 553 ]
142
[ 556 ]
154
[ 557 ]
103
136
144
161
168
184
[ 558 ]
125
130
146
[ 559 ]
80
167
203
[ 560 ]
129
153
164
[ 561 ]
145
165
244
[ 562 ]
143
151
160
[ 566 ]
128
[ 579 ]
110
[ 581 ]
118
137
[ 582 ]
104
138
[ 584 ]
96
97
[ 585 ]
139
[ 587 ]
95
140
[ 588 ]
156
162
[ 589 ]
100
158
[ 590 ]
169
[ 591 ]
171
321
[ 592 ]
152
172
173
208
246
[ 593 ]
150
180
204
205
245
[ 595 ]
209
[ 596 ]
182
[ 600 ]
175
[ 609 ]
115
[ 610 ]
111
116
[ 613 ]
99
[ 614 ]
108
[ 615 ]
107
[ 620 ]
133
155
233
[ 621 ]
134
[ 622 ]
198
320
[ 623 ]
148
199
289
[ 624 ]
131
212
[ 625 ]
132
174
224
[ 626 ]
179
202
249
[ 627 ]
176
177
210
276
357
370
[ 628 ]
181
218
247
319
360
[ 629 ]
188
280
[ 641 ]
117
[ 648 ]
98
102
[ 649 ]
109
[ 652 ]
101
[ 654 ]
215
231
[ 655 ]
256
[ 656 ]
183
222
238
290
358
[ 657 ]
223
255
278
279
347
363
[ 658 ]
170
237
257
355
384
616
[ 659 ]
197
214
291
361
369
[ 660 ]
277
322
356
365
367
[ 661 ]
211
221
251
254
615
[ 662 ]
186
248
272
292
359
362
364
[ 663 ]
366
[ 664 ]
187
189
[ 666 ]
194
[ 674 ]
114
[ 679 ]
113
[ 682 ]
112
[ 684 ]
157
228
[ 685 ]
226
325
[ 686 ]
281
288
[ 687 ]
234
373
386
[ 688 ]
283
318
381
415
427
[ 689 ]
352
379
589
[ 690 ]
200
220
229
250
274
316
353
380
568
614
[ 691 ]
201
216
217
225
252
253
371
377
547
610
613
622
[ 692 ]
149
178
190
241
374
387
409
617
[ 693 ]
195
227
235
271
273
385
[ 694 ]
147
196
213
263
270
[ 695 ]
193
239
268
[ 716 ]
323
406
563
889
[ 718 ]
287
336
383
411
434
888
[ 719 ]
301
404
627
639
[ 720 ]
282
315
372
388
412
437
544
573
640
[ 721 ]
258
324
398
423
425
462
543
574
588
621
633
635
[ 722 ]
267
293
354
378
473
546
620
626
647
[ 723 ]
219
230
236
275
330
345
571
619
942
[ 724 ]
265
286
317
408
426
545
643
[ 725 ]
262
285
567
607
618
641
[ 726 ]
600
625
[ 727 ]
308
[ 728 ]
240
264
[ 729 ]
243
[ 731 ]
191
[ 745 ]
402
[ 746 ]
397
[ 747 ]
298
934
[ 748 ]
697
891
[ 749 ]
339
[ 750 ]
305
334
382
389
410
438
930
932
[ 751 ]
232
331
419
420
433
679
744
879
933
[ 752 ]
350
351
417
636
685
931
[ 753 ]
401
407
413
416
561
569
611
680
699
738
[ 754 ]
300
349
375
414
457
463
548
603
785
922
[ 755 ]
192
439
470
516
526
539
541
558
609
612
631
638
642
937
941
[ 756 ]
269
454
530
564
581
582
585
587
608
623
644
772
909
952
[ 757 ]
312
428
551
566
649
[ 758 ]
294
606
719
910
912
[ 759 ]
552
557
591
596
605
632
913
[ 760 ]
368
601
[ 761 ]
242
624
911
[ 763 ]
565
602
[ 778 ]
542
[ 779 ]
394
887
[ 780 ]
395
405
665
890
[ 781 ]
432
449
450
668
690
692
696
700
701
729
[ 782 ]
327
376
418
436
452
474
[ 783 ]
299
400
422
451
498
525
572
577
583
715
773
775
875
[ 784 ]
302
326
399
430
448
501
579
637
852
877
[ 785 ]
296
297
396
459
656
695
724
727
783
923
925
935
[ 786 ]
309
311
343
346
521
527
540
648
663
678
684
702
713
718
745
752
756
777
779
782
908
920
946
954 # this
[ 787 ]
295
333
485
524
553
704
707
711
716
721
728
781
921
940
[ 788 ]
307
313
431
504
517
535
550
555
580
597
650
651
661
662
708
753
780
938
962
970
[ 789 ]
259
344
467
536
562
584
629
722
741
906
965
[ 790 ]
284
342
592
646
740
949
966
[ 791 ]
559
586
630
634
653
720
961
[ 792 ]
484
528
532
534
570
590
660
943
948
960
[ 793 ]
260
482
531
950
[ 794 ]
261
[ 795 ]
332
628
[ 796 ]
348
[ 797 ]
533
[ 799 ]
266
[ 810 ]
884
[ 811 ]
465
670
[ 812 ]
393
694
819
882
[ 813 ]
303
335
442
666
769
840
854
[ 814 ]
424
475
500
683
755
784
813
929
[ 815 ]
403
435
440
667
681
739
754
776
853
886
903
904
[ 816 ]
304
306
466
672
737
750
830
927
[ 817 ]
340
392
421
446
464
502
520
594
673
709
710
736
742
834
905
936
951
953
957
992
[ 818 ]
338
461
477
511
512
519
664
676
703
717
758
763
767
789
791
838
[ 819 ]
314
578
655
674
689
714
725
743
757
765
786
796
811
846
924
945
[ 820 ]
472
598
645
657
748
771
788
818
863
876
892
907
926
963
994
[ 821 ]
476
487
652
677
774
790
939
964
[ 822 ]
429
469
471
493
505
654
669
705
857
956
967
[ 823 ]
488
495
529
599
659
688
[ 824 ]
310
453
515
549
576
593
604
730
958
959
969
[ 825 ]
538
556
575
595
706
944
947
[ 826 ]
480
554
[ 827 ]
518
[ 839 ]
883
[ 841 ]
885
[ 843 ]
391
691
698
833
902
[ 844 ]
760
823
839
915
[ 845 ]
445
675
828
831
897
[ 846 ]
447
732
825
829
[ 847 ]
731
746
764
837
878
893
[ 848 ]
390
671
712
916
919
[ 849 ]
458
792
809
810
815
836
845
859
988
[ 850 ]
456
460
766
802
826
827
832
844
874
[ 851 ]
328
455
478
486
509
735
759
768
794
798
824
901
987
1001
[ 852 ]
329
503
537
734
841
847
917
928
[ 853 ]
658
723
726
749
778
991
[ 854 ]
686
747
858
955
990
[ 855 ]
468
489
510
523
[ 856 ]
490
687
[ 857 ]
341
483
[ 858 ]
492
807
[ 859 ]
481
[ 860 ]
491
[ 874 ]
894
[ 875 ]
849
[ 876 ]
337
770
814
848
871
[ 877 ]
443
693
812
881
998
[ 878 ]
842
[ 879 ]
682
880
[ 880 ]
762
822
835
851
861
[ 881 ]
918
997
[ 882 ]
733
761
793
862
[ 883 ]
497
800
808
843
850
971
999
[ 884 ]
507
522
751
797
804
914
989
993
995
[ 885 ]
499
799
[ 886 ]
514
[ 887 ]
801
803
968
[ 889 ]
494
[ 890 ]
479
[ 906 ]
900
[ 907 ]
896
899
[ 908 ]
444
[ 909 ]
821
860
[ 912 ]
816
972
1000
[ 913 ]
855
856
873
[ 914 ]
441
[ 915 ]
820
[ 916 ]
975
983
[ 917 ]
864
977
980
996
[ 918 ]
506
508
513
817
973
978
986
[ 919 ]
787
974
[ 920 ]
496
[ 921 ]
866
984
[ 922 ]
867
[ 925 ]
868
[ 940 ]
898
[ 942 ]
869
[ 944 ]
870
872
[ 945 ]
865
981
[ 946 ]
560
[ 948 ]
982
[ 951 ]
979
[ 952 ]
795
806
[ 954 ]
985
[ 972 ]
895
[ 980 ]
976
[ 1014 ]
805
