[ 5 ]
1
[ 293 ]
3
[ 324 ]
2
[ 326 ]
5
13
[ 327 ]
4
[ 329 ]
21
[ 356 ]
10
[ 357 ]
19
[ 358 ]
9
15
26
[ 359 ]
6
7
14
[ 360 ]
29
[ 361 ]
34
[ 387 ]
24
[ 388 ]
8
12
23
28
55
[ 389 ]
11
25
27
51
[ 390 ]
16
18
22
39
42
53
59
69
[ 391 ]
47
52
57
60
62
71
[ 392 ]
33
41
43
48
50
[ 393 ]
65
[ 420 ]
56
[ 421 ]
45
58
63
68
[ 422 ]
17
49
[ 423 ]
20
35
37
38
40
54
61
64
72
75
[ 424 ]
46
[ 426 ]
73
[ 453 ]
67
[ 454 ]
31
36
66
[ 455 ]
86
855
[ 456 ]
44
70
856
[ 457 ]
76
[ 459 ]
74
[ 484 ]
30
32
[ 485 ]
85
703
[ 487 ]
859
[ 488 ]
658
854
[ 489 ]
446
652
853
[ 493 ]
514
[ 516 ]
755
1056
[ 517 ]
726
765
771
1048
[ 518 ]
84
87
358
704
708
737
741
759
763
768
1158
1182
[ 519 ]
77
110
360
661
677
689
709
744
760
769
861
898
904
917
1005
1059
1141
1163
[ 520 ]
642
660
662
663
672
674
676
713
754
761
832
846
1008
1195
[ 521 ]
88
102
103
623
653
669
841
844
860
[ 522 ]
101
111
648
654
829
[ 523 ]
638
646
[ 524 ]
92
109
651
[ 547 ]
758
[ 548 ]
707
731
738
747
752
753
[ 549 ]
82
90
659
687
696
739
749
770
790
803
808
919
921
923
933
[ 550 ]
78
671
691
695
701
705
706
715
730
735
740
745
750
756
757
767
778
779
826
842
865
890
931
932
970
1051
1054
1136
1160
1186
[ 551 ]
106
628
632
679
681
688
694
697
702
719
728
729
732
733
734
743
762
766
807
809
843
849
892
895
903
1004
1050
1052
1053
1078
1084
1114
1138
1139
1165
1173
[ 552 ]
357
362
364
385
639
645
668
675
678
680
690
693
710
725
727
736
742
746
748
764
828
847
858
866
879
896
897
930
934
1055
1060
1062
1064
1066
1076
1093
1096
1102
1107
1113
1117
1122
1126
1127
1132
1134
1143
1147
1166
1171
1181
1184
1197
1214
1245
1272
[ 553 ]
89
361
415
418
420
437
501
587
602
604
619
629
644
656
711
823
836
840
850
869
870
871
873
905
1061
1104
1105
1112
1123
1135
1137
1140
1145
1164
1191
1193
1204
1216
1217
1248
1268
1301
1309
[ 554 ]
352
427
445
448
533
578
603
631
673
852
857
863
864
868
872
874
1058
1067
1110
1120
1125
1133
1146
1148
1153
1168
1194
1211
1242
1311
[ 555 ]
447
591
622
633
640
650
1177
1198
1220
1222
[ 556 ]
340
1196
[ 557 ]
421
576
635
845
[ 558 ]
259
[ 579 ]
963
[ 580 ]
474
776
786
801
913
916
958
961
[ 581 ]
80
83
105
499
698
699
751
914
926
927
929
953
957
960
[ 582 ]
79
114
135
140
430
473
509
666
720
721
722
789
795
796
806
814
815
816
893
928
947
954
959
966
982
1047
1157
[ 583 ]
112
216
262
363
412
670
683
712
716
717
723
724
777
791
792
794
797
800
805
810
811
821
822
824
833
862
876
907
918
920
924
925
936
939
946
949
950
962
969
976
981
984
1095
1098
1116
1155
1161
1185
1257
[ 584 ]
107
154
220
261
349
356
376
472
494
498
500
543
579
583
624
665
682
685
700
714
718
772
812
813
817
818
819
820
825
831
848
851
867
878
880
884
886
888
899
902
908
922
935
940
942
951
955
973
979
1006
1007
1014
1049
1065
1069
1073
1077
1081
1082
1097
1101
1115
1121
1129
1169
1172
1174
1178
1187
1190
1215
1224
1266
1279
1283
1290
1297
[ 585 ]
91
100
104
133
155
258
419
422
424
468
487
513
544
545
581
617
621
655
664
686
793
834
875
877
881
887
891
906
910
937
938
956
968
1057
1068
1075
1083
1085
1094
1099
1100
1106
1108
1111
1124
1144
1154
1179
1180
1183
1201
1202
1205
1207
1263
1264
1265
1269
1271
1273
1288
1291
1293
1296
1298
1299
1302
1303
1306
1324
1336
[ 586 ]
108
240
331
345
396
485
580
620
627
636
684
692
804
830
837
999
1003
1072
1074
1079
1087
1103
1109
1118
1119
1128
1130
1142
1150
1151
1152
1156
1159
1162
1189
1199
1212
1213
1235
1237
1243
1244
1267
1277
1282
1295
1307
1317
1326
[ 587 ]
93
97
99
257
260
348
354
359
392
416
423
444
588
590
610
637
1131
1167
1200
1210
1225
1226
1232
1234
1304
1310
1314
1334
[ 588 ]
94
256
330
449
515
575
634
641
643
1170
1192
1221
1236
1246
1274
1280
[ 589 ]
577
647
[ 610 ]
783
[ 611 ]
81
782
784
[ 612 ]
780
[ 613 ]
141
160
185
549
773
787
901
991
[ 614 ]
156
219
225
227
239
367
372
435
775
785
788
883
885
900
948
952
964
1009
1030
1285
1289
[ 615 ]
127
153
159
206
213
217
226
228
233
238
375
394
475
495
630
657
798
882
912
941
985
986
995
1013
1021
1022
1045
1046
1070
1080
4839
[ 616 ]
129
134
174
224
251
253
353
355
371
373
374
388
433
436
439
470
471
492
497
548
562
601
612
626
889
911
915
944
945
974
975
990
996
1002
1010
1012
1016
1259
1262
1408
2129
[ 617 ]
96
136
175
203
204
218
252
303
341
342
346
351
365
366
402
417
428
456
465
466
477
478
502
506
532
541
552
611
614
649
802
827
838
839
909
943
965
980
983
993
997
1001
1025
1026
1036
1063
1088
1092
1175
1219
1238
1250
1253
1255
1256
1258
1261
1276
1278
1284
1287
1300
1312
1315
1328
2263
[ 618 ]
95
98
132
246
254
264
344
377
397
398
426
480
482
489
491
504
512
551
584
585
586
607
613
618
894
971
972
977
992
994
1037
1071
1089
1149
1176
1203
1223
1241
1270
1275
1281
1294
1316
1320
1335
1351
1363
[ 619 ]
201
205
241
292
301
302
304
326
347
382
395
400
411
459
479
484
516
517
536
540
565
582
595
605
606
625
835
1188
1218
1231
1254
1260
1308
1318
1323
1337
1338
1365
[ 620 ]
263
350
425
488
503
534
597
1228
1229
1239
1249
1292
1305
1321
1331
[ 621 ]
327
328
381
387
391
450
571
1322
1327
1329
1330
[ 622 ]
567
1230
1325
[ 623 ]
570
[ 642 ]
781
[ 645 ]
113
125
177
232
236
4974
[ 646 ]
139
157
161
163
208
221
235
493
667
1044
4837
4840
[ 647 ]
128
131
143
172
176
180
184
197
211
229
368
431
476
592
774
799
978
998
1029
1035
4795
4972
[ 648 ]
137
169
200
210
212
214
222
231
249
339
401
434
438
505
510
616
987
988
1000
1011
1017
1018
1038
4824
4826
4949
[ 649 ]
138
158
195
215
237
384
414
432
441
443
463
467
490
496
508
511
521
563
967
1031
1032
1033
1086
1090
1091
1252
1385
1413
2119
2190
2253
2470
2804
4326
4796
4948
[ 650 ]
242
243
245
271
305
393
410
429
454
457
462
469
483
520
537
542
547
550
566
608
1024
1039
1209
1251
1286
1319
1383
1406
1510
1854
2255
2392
2543
2580
2646
2726
2817
[ 651 ]
324
383
386
455
461
553
561
574
599
600
989
1015
1034
1041
1206
1247
1313
1341
1357
1372
1684
1745
1749
1751
2008
2111
2183
2196
2198
2204
2258
2259
2270
2391
2786
2811
2826
3431
4390
[ 652 ]
267
295
298
338
530
556
558
564
589
615
1240
1342
1346
1349
1354
1361
1387
1661
1682
1743
1980
2007
2140
2193
2215
2293
2396
2428
4459
[ 653 ]
300
325
343
399
460
557
569
573
1227
1233
1333
1343
1356
1367
1389
1681
1703
1750
2003
2122
2130
2220
2223
2264
3498
4468
[ 654 ]
274
294
299
554
1332
1345
1348
1352
1672
2424
[ 655 ]
572
1355
[ 675 ]
117
[ 677 ]
234
2720
4841
4862
[ 678 ]
126
162
182
186
370
1027
2692
2719
4835
4947
4962
4978
[ 679 ]
142
207
209
524
525
535
1020
1042
2576
2688
2716
2763
2765
2785
2787
2792
2793
2823
2829
4805
4807
4823
4838
4846
4855
4858
4987
4989
4995
[ 680 ]
167
230
268
442
507
522
539
1043
1909
1969
2230
2359
2502
2517
2556
2557
2654
2699
2723
2727
2753
2790
2809
3910
4797
4808
4810
4811
4833
4845
4963
4968
[ 681 ]
171
183
223
269
288
306
380
451
481
529
609
1019
1023
1028
1392
1623
1736
1747
1814
1830
2020
2224
2355
2505
2513
2514
2515
2534
2547
2558
2561
2585
2640
2645
2647
2648
2696
2756
2778
2781
2810
2814
2825
3896
3905
3911
4658
4782
4790
4812
4827
4854
4857
4979
[ 682 ]
152
255
265
319
379
389
405
440
458
464
486
526
538
593
1040
1360
1378
1380
1384
1388
1391
1405
1410
1414
1572
1622
1626
1727
1806
1833
1837
1838
1840
1850
1853
1860
1871
1874
1929
1933
1940
1964
1966
2005
2009
2114
2121
2132
2199
2201
2207
2240
2243
2244
2252
2265
2303
2327
2328
2358
2363
2385
2399
2463
2480
2509
2510
2516
2518
2535
2549
2555
2567
2569
2570
2571
2577
2644
2650
2674
2700
2728
2729
2769
2782
2783
2812
2816
2828
3399
3470
3656
3895
4319
4456
4463
4792
4793
4815
4830
4832
4834
[ 683 ]
270
333
407
413
546
560
596
598
1208
1347
1359
1362
1364
1427
1625
1646
1677
1689
1728
1741
1801
1815
1818
1826
1832
1848
1856
1927
1939
1942
1965
1975
2004
2006
2015
2019
2030
2046
2074
2110
2112
2113
2118
2124
2127
2128
2134
2137
2144
2171
2180
2186
2197
2203
2216
2256
2297
2298
2299
2307
2315
2331
2346
2354
2360
2361
2370
2371
2384
2393
2398
2400
2406
2407
2412
2421
2423
2439
2482
2506
2508
2521
2539
2546
2566
2642
2694
2732
2777
2780
2794
2805
2806
2807
2853
3182
3410
3412
3457
3464
3487
3653
3661
3890
3912
3975
3996
4014
4020
4105
4128
4389
4668
4794
4813
4985
[ 684 ]
287
290
291
293
296
297
314
555
1344
1366
1379
1409
1412
1424
1426
1440
1451
1492
1509
1528
1574
1600
1653
1673
1674
1676
1680
1685
1704
1706
1725
1744
1802
1808
1809
1810
1811
1817
1835
1870
1875
1881
1974
1976
1978
2001
2012
2013
2021
2033
2042
2123
2142
2163
2169
2174
2185
2187
2189
2205
2214
2217
2221
2222
2245
2246
2250
2257
2266
2267
2268
2296
2308
2310
2329
2345
2352
2386
2394
2395
2401
2410
2427
2440
2478
2523
2572
2590
2731
2795
3403
3411
3456
3458
3466
3468
3469
3486
3497
3507
3629
3657
3658
3663
3689
3869
3891
3946
4008
4333
4381
4464
4944
[ 685 ]
266
452
1350
1371
1373
1375
1454
1588
1663
1664
1667
1683
1686
1691
1700
1707
1723
1735
1746
1748
1812
1902
1917
1918
1920
1968
1971
1986
1996
1998
2023
2029
2032
2126
2135
2141
2143
2184
2188
2194
2195
2200
2242
2260
2276
2292
2294
2319
2356
2362
2389
2411
2416
2533
2808
3401
3454
3461
3467
3471
3485
3491
3504
3646
3664
3739
3760
3782
3816
3867
3922
3954
3966
3995
4007
4010
4031
4113
4119
4325
4332
4383
4727
[ 686 ]
289
329
390
518
559
1339
1340
1353
1370
1386
1513
1659
1670
1671
1698
1701
1724
1738
1824
1845
1916
1972
1973
2002
2028
2106
2191
2192
2202
2248
2272
2408
2414
2425
2426
2730
3448
3455
3472
3475
3476
3488
3489
3492
3635
3776
3777
3789
3804
3817
3836
3978
3982
3986
3994
4013
4015
4016
4019
4056
4057
4059
4075
4112
4184
4193
4200
4380
4382
4465
4526
[ 687 ]
281
568
1665
1669
1717
1742
2136
2158
2269
2271
3452
3473
3474
3490
3495
3505
3510
3512
3513
3838
3840
3963
3987
3988
3997
4002
4058
4064
4320
4377
[ 688 ]
2429
3508
3639
3747
3855
4341
4354
4466
[ 689 ]
3858
4004
4018
4025
4345
4503
[ 690 ]
3852
3856
4023
4416
[ 691 ]
3511
4003
[ 692 ]
3850
4024
[ 707 ]
168
4887
[ 708 ]
166
[ 709 ]
196
2672
2747
2830
4816
4817
4859
[ 710 ]
116
144
150
173
2609
2666
2721
2722
2757
2762
2820
2864
2868
4873
4965
4971
4977
[ 711 ]
123
149
164
170
178
181
594
2626
2661
2686
2704
2818
2819
2824
2887
3030
3186
4720
4803
4814
4831
4836
4842
4844
4861
4957
4958
4959
4973
[ 712 ]
198
248
277
378
523
1403
2231
2349
2405
2597
2600
2611
2639
2667
2689
2691
2702
2705
2709
2717
2735
2744
2754
2758
2766
2771
2773
2774
2779
2788
2821
2827
2862
3058
3072
3083
3185
3188
3883
3893
4331
4669
4798
4799
4806
4809
4818
4850
4853
4953
4964
4969
4975
4990
4992
[ 713 ]
130
187
244
247
409
453
527
1624
1784
1789
1800
1843
1858
1862
1899
1906
2228
2348
2381
2420
2468
2475
2476
2479
2481
2483
2484
2485
2486
2501
2503
2519
2520
2522
2538
2560
2563
2564
2573
2574
2579
2582
2583
2584
2586
2588
2589
2594
2596
2602
2610
2614
2617
2633
2635
2638
2641
2649
2660
2678
2687
2698
2701
2710
2718
2760
2768
2772
2799
2815
2822
2854
2860
2885
3244
3291
3422
3424
3483
3604
3619
3892
3894
3899
4073
4316
4661
4662
4684
4740
4741
4801
4847
4956
4960
4976
4986
4997
[ 714 ]
199
202
272
284
307
317
322
403
408
528
1390
1411
1566
1589
1608
1614
1615
1619
1732
1733
1786
1794
1797
1828
1842
1844
1847
1851
1855
1857
1859
1864
1865
1868
1873
1877
1880
1884
1885
1901
1904
1936
1957
1989
2045
2050
2063
2083
2151
2206
2286
2300
2306
2323
2338
2342
2364
2368
2378
2383
2402
2471
2477
2492
2500
2504
2507
2511
2524
2537
2548
2552
2565
2575
2581
2591
2592
2593
2598
2601
2625
2632
2634
2643
2651
2738
2743
2746
2749
2755
2770
2776
2791
3183
3224
3245
3253
3260
3346
3361
3368
3416
3671
3692
3738
3889
3903
3908
3913
3942
3944
3945
4248
4329
4366
4425
4545
4657
4686
4721
4733
4755
4785
4820
4829
4852
4856
4865
4951
4952
4966
4967
4970
4980
4988
[ 715 ]
191
310
323
334
406
1368
1369
1394
1398
1415
1425
1438
1486
1508
1515
1569
1582
1596
1611
1620
1621
1635
1640
1647
1654
1656
1719
1730
1734
1739
1740
1760
1781
1795
1798
1805
1807
1822
1825
1829
1831
1846
1863
1866
1867
1869
1876
1895
1903
1905
1938
1941
1958
1959
1960
1961
1981
1999
2010
2014
2044
2047
2058
2075
2077
2078
2081
2133
2145
2181
2211
2213
2232
2261
2305
2309
2311
2316
2336
2339
2347
2350
2365
2366
2367
2369
2388
2390
2403
2418
2422
2454
2462
2491
2525
2536
2545
2562
2587
2624
2659
2725
2733
2736
2739
2784
2798
2801
2813
3202
3267
3358
3379
3393
3397
3400
3415
3462
3480
3484
3503
3582
3591
3634
3647
3654
3729
3754
3825
3877
3897
3900
3902
3958
3960
4083
4107
4129
4236
4323
4458
4462
4640
4643
4656
4678
4729
4825
4984
4996
4999
[ 716 ]
250
312
320
531
1358
1377
1381
1393
1395
1397
1422
1433
1441
1470
1474
1480
1481
1487
1506
1545
1557
1558
1562
1585
1590
1595
1612
1636
1645
1648
1650
1652
1655
1675
1678
1696
1705
1731
1804
1816
1827
1836
1841
1888
1889
1911
1915
1919
1921
1922
1924
1926
1928
1932
1943
1946
1970
1979
1982
1984
1988
1994
2011
2016
2018
2026
2031
2034
2036
2040
2041
2060
2071
2099
2103
2104
2115
2116
2138
2155
2164
2166
2218
2225
2233
2241
2262
2273
2274
2325
2353
2372
2373
2397
2419
2435
2442
2445
2451
2464
2474
2489
2490
2495
2498
2499
2527
2542
2554
2568
2653
2724
2767
2796
3206
3226
3398
3404
3433
3442
3443
3481
3482
3494
3499
3502
3583
3584
3645
3665
3688
3700
3769
3770
3806
3826
3829
3870
3871
3887
3901
3906
3915
3947
3953
3955
3956
3976
4011
4012
4032
4084
4087
4092
4093
4103
4111
4117
4130
4168
4174
4216
4240
4324
4328
4453
4541
4543
4547
4558
4664
4666
4791
4946
4954
4982 # this
[ 717 ]
280
332
1401
1407
1417
1419
1448
1452
1457
1489
1514
1516
1561
1571
1573
1578
1581
1591
1602
1609
1642
1643
1657
1662
1687
1688
1702
1715
1726
1729
1752
1753
1754
1758
1759
1765
1799
1803
1839
1887
1912
1913
1925
1937
1949
1962
1977
1985
1995
2022
2024
2039
2070
2072
2073
2080
2109
2117
2120
2131
2147
2154
2156
2160
2172
2177
2208
2219
2229
2275
2280
2284
2291
2295
2301
2312
2314
2318
2320
2321
2330
2332
2357
2404
2409
2433
2530
2620
2621
3211
3359
3369
3382
3390
3402
3441
3447
3453
3460
3479
3506
3509
3648
3652
3662
3677
3694
3713
3715
3730
3736
3755
3756
3761
3764
3779
3798
3809
3818
3832
3841
3845
3884
3941
3948
3968
3970
3979
3980
3998
4001
4006
4030
4033
4065
4070
4071
4074
4078
4081
4088
4096
4110
4114
4121
4123
4131
4157
4158
4159
4170
4178
4215
4231
4233
4235
4250
4330
4335
4461
4540
4723
4731
4732
4743
4786
4981
[ 718 ]
273
279
1423
1445
1453
1460
1488
1491
1498
1504
1507
1518
1530
1535
1538
1565
1580
1593
1599
1651
1658
1660
1679
1690
1699
1718
1722
1755
1823
1849
1931
1951
1953
1967
1983
1990
1991
1997
2000
2059
2068
2125
2153
2162
2165
2167
2168
2170
2175
2212
2238
2249
2290
2302
2322
2344
2415
2417
2430
2444
2449
2456
2553
3311
3389
3394
3449
3459
3632
3633
3651
3660
3676
3690
3716
3757
3775
3785
3787
3803
3807
3827
3828
3844
3860
3950
3961
3967
3971
3983
4005
4009
4029
4034
4047
4062
4069
4079
4098
4102
4106
4109
4125
4134
4155
4156
4175
4187
4191
4199
4208
4214
4322
4346
4349
4370
4376
4387
4388
4455
4467
4473
4476
4675
4688
4744
[ 719 ]
1376
1447
1456
1502
1505
1522
1539
1542
1551
1592
1666
1668
1697
1708
1710
1737
1944
2139
2173
2178
2209
2251
2313
3360
3407
3438
3445
3450
3463
3477
3666
3740
3742
3745
3746
3751
3763
3772
3778
3781
3793
3794
3800
3811
3831
3834
3846
3865
3868
3907
3909
3929
3964
3965
3977
4026
4027
4035
4055
4061
4063
4115
4135
4198
4347
4350
4391
4524
4535
4725
[ 720 ]
1428
1519
1521
1543
1711
2148
2239
2434
3451
3465
3735
3744
3790
3791
3795
3797
3837
3839
3859
4017
4021
4037
4066
4118
4190
4195
4340
4359
4375
4385
4469
[ 721 ]
2035
3748
3783
3796
3833
3842
3857
4028
4038
4060
4196
4351
4352
4374
[ 722 ]
3743
3792
3919
4039
4327
4343
4344
4504
[ 723 ]
3741
3853
3854
[ 724 ]
4022
[ 725 ]
3863
[ 738 ]
2867
[ 740 ]
115
369
3029
[ 741 ]
2707
2839
2845
2869
4863
4870
[ 742 ]
2655
2657
2697
2711
2841
2851
2856
2873
2879
2886
3027
3034
3037
3262
4802
4848
4869
4875
4883
[ 743 ]
146
188
189
1772
2595
2605
2668
2669
2671
2675
2677
2681
2682
2684
2706
2708
2764
2789
2802
2843
2874
2877
2878
3002
3047
3068
3081
3094
3101
3109
3187
3418
3429
4843
4851
[ 744 ]
148
151
1787
1788
2351
2604
2606
2607
2613
2616
2630
2658
2670
2679
2693
2713
2715
2742
2751
2752
2875
2889
3044
3045
3055
3067
3079
3104
3105
3107
3184
3296
4392
4396
4659
4713
4781
4783
4849
4864
4892
4943
4955
4991
4993
5001
[ 745 ]
1416
1791
1897
2288
2488
2529
2551
2599
2631
2636
2665
2703
2712
2734
2741
2748
2761
2800
2803
2847
2855
2863
2888
3102
3108
3207
3212
3217
3228
3240
3285
3306
3601
3624
3643
3670
3695
3750
3881
3898
3904
4212
4645
4651
4709
4710
4745
4788
4789
4804
4822
4828
4950
4961
4998
[ 746 ]
193
286
316
404
1402
1421
1431
1604
1613
1629
1630
1632
1692
1767
1769
1771
1782
1783
1790
1792
1852
1872
1878
1908
1910
2057
2087
2285
2375
2387
2465
2469
2472
2487
2512
2526
2540
2541
2578
2603
2608
2618
2652
2690
2695
2745
2759
3065
3099
3146
3166
3179
3209
3225
3242
3243
3252
3257
3279
3287
3290
3312
3357
3417
3603
3607
3614
3621
3650
3659
3698
3882
3937
4151
4400
4642
4650
4652
4663
4672
4674
4681
4685
4687
4698
4734
4738
4780
4819
4821
[ 747 ]
276
282
321
519
1404
1432
1559
1563
1568
1584
1616
1627
1637
1785
1793
1879
1883
1896
2054
2069
2082
2086
2102
2107
2108
2161
2254
2304
2337
2343
2374
2376
2380
2441
2450
2467
2473
2550
2559
2619
2622
2637
2740
2775
2884
3066
3071
3073
3198
3204
3210
3247
3258
3276
3294
3304
3347
3365
3366
3367
3378
3414
3419
3420
3421
3423
3588
3606
3675
3684
3687
3711
3731
3752
3874
3875
3879
3914
3932
3934
3936
3984
3999
4101
4124
4142
4153
4169
4173
4205
4211
4218
4228
4234
4244
4254
4295
4348
4364
4399
4447
4559
4647
4649
4671
4676
4677
4692
4705
4711
4737
4784
[ 748 ]
275
318
1382
1443
1455
1517
1533
1541
1583
1586
1597
1603
1606
1607
1618
1639
1644
1766
1775
1821
1834
1861
1882
1886
1891
1907
1952
2017
2043
2055
2076
2079
2091
2098
2100
2157
2226
2227
2247
2279
2317
2324
2340
2379
2382
2432
2437
2443
2452
2453
2455
2496
2528
2623
2627
2750
3192
3203
3221
3251
3255
3256
3363
3372
3376
3380
3408
3409
3426
3430
3444
3478
3493
3577
3597
3623
3637
3638
3642
3649
3655
3683
3697
3720
3762
3824
3872
3888
3931
3939
3943
3951
3972
4072
4076
4099
4139
4152
4160
4161
4172
4217
4225
4243
4255
4393
4442
4448
4460
4570
4589
4633
4637
4639
4644
4682
4683
4691
4694
4730
4747
4748
4750
4983
[ 749 ]
285
311
313
1396
1399
1418
1429
1437
1439
1449
1466
1472
1476
1490
1493
1511
1534
1546
1547
1564
1570
1576
1587
1594
1598
1605
1617
1638
1641
1721
1756
1768
1780
1813
1820
1892
1930
1934
1935
1950
2025
2027
2037
2052
2053
2056
2061
2064
2066
2084
2150
2152
2179
2210
2236
2333
2335
2438
2448
2531
2737
2797
3281
3309
3313
3371
3373
3377
3381
3391
3413
3432
3496
3501
3574
3578
3579
3589
3590
3593
3610
3630
3636
3679
3691
3714
3727
3737
3767
3768
3812
3819
3886
3933
3949
3974
3981
3990
4048
4053
4054
4067
4068
4090
4122
4137
4140
4143
4146
4166
4167
4176
4189
4197
4209
4213
4220
4230
4241
4242
4297
4304
4315
4317
4318
4372
4395
4397
4412
4414
4445
4510
4512
4537
4641
4654
4673
4689
4724
4739
4742
4746
[ 750 ]
335
336
1374
1462
1473
1477
1495
1497
1500
1531
1540
1544
1548
1560
1567
1575
1577
1633
1693
1695
1712
1716
1757
1923
1947
1948
1954
1955
1963
1992
1993
2038
2049
2067
2101
2146
2176
2237
2278
2282
2289
2447
2628
3310
3343
3374
3392
3435
3500
3573
3678
3758
3759
3788
3805
3810
3815
3830
3843
3866
3876
3916
3917
3938
3940
3957
3959
3962
3973
3991
3992
4000
4100
4104
4120
4145
4162
4171
4188
4192
4232
4239
4251
4252
4253
4256
4271
4296
4321
4373
4379
4548
4571
4679
4690
4787
[ 751 ]
1435
1450
1461
1469
1482
1484
1496
1520
1527
1529
1552
1579
1634
1694
1713
1714
1720
1764
1914
1945
1956
2105
2283
2326
2334
2413
2446
2457
3356
3387
3388
3395
3396
3434
3446
3571
3668
3712
3766
3799
3801
3808
3814
3848
3885
3927
3952
3985
4040
4082
4085
4313
4356
4363
4369
4386
4421
4479
4502
4517
4610
4693
4726
4764
4945
[ 752 ]
1479
1494
1501
1503
1523
1556
1709
1762
1987
2431
2458
3383
3437
3439
3640
3784
3820
3835
3847
4036
4049
4080
4185
4384
4449
4519
4525
4538
[ 753 ]
3440
3516
3920
3921
3969
3993
4126
4183
4355
4358
4417
4471
4472
4511
4520
[ 754 ]
3515
3765
3862
3923
4116
4179
4339
4342
4353
4378
4475
[ 755 ]
3514
4194
4474
4509
[ 756 ]
3521
3851
3864
4500
[ 759 ]
3849
[ 771 ]
124
[ 772 ]
121
165
2680
2685
2838
4877
4888
4994
[ 773 ]
145
179
2831
2832
2849
2870
2931
2976
3025
3070
4866
4871
4874
4881
[ 774 ]
2676
2844
2848
2858
2861
2882
2883
2893
3023
3026
3036
3038
3041
3046
3056
3057
3113
3153
3178
3216
3237
4872
4876
4880
4884
[ 775 ]
119
2656
2833
2834
2846
2852
2857
2865
2871
2876
2881
2967
3012
3031
3032
3033
3042
3059
3060
3089
3092
3093
3098
3106
3110
3111
3117
3121
3133
3143
3151
3163
3165
3177
3230
3264
4660
4800
4867
4903
[ 776 ]
2629
2995
3039
3040
3053
3064
3075
3076
3085
3086
3114
3120
3155
3174
3175
3189
3218
3278
3293
3301
4138
4708
4716
4879
4882
[ 777 ]
190
1420
1773
2096
2612
2664
2714
2997
2999
3001
3048
3084
3100
3126
3128
3129
3152
3156
3157
3180
3181
3214
3231
3236
3239
3246
3259
3261
3263
3265
3266
3268
3273
3282
3286
3289
3302
3308
3602
4046
4646
4704
4707
4714
4728
4757
4758
[ 778 ]
283
337
1763
1779
1890
2092
2095
2097
2493
2494
2532
2998
3087
3145
3150
3159
3190
3191
3194
3199
3215
3222
3223
3234
3241
3248
3272
3277
3303
3427
3587
3605
3609
3685
4206
4224
4394
4531
4544
4648
4655
4717
4722
[ 779 ]
192
1436
1485
1777
1778
1796
1819
1894
1898
2065
2085
2088
2089
2090
2094
2663
3125
3168
3193
3196
3200
3208
3250
3274
3292
3298
3299
3307
3315
3327
3349
3350
3352
3428
3620
3626
3644
3667
3686
3709
3717
3822
3823
3926
3935
4094
4133
4150
4165
4186
4203
4229
4237
4238
4293
4405
4599
4638
4700
4712
4736
4779
[ 780 ]
1400
1434
1444
1465
1761
1770
1774
1893
2377
2466
2497
3160
3195
3201
3205
3254
3341
3351
3354
3355
3362
3364
3370
3611
3616
3625
3628
3641
3693
3707
3719
4136
4144
4177
4201
4221
4266
4284
4289
4292
4301
4334
4338
4367
4401
4406
4408
4439
4443
4454
4457
4530
4542
4546
4636
4653
4670
4695
4697
4706
4754
4761
[ 781 ]
315
1430
1442
1463
1475
1525
1549
1628
1631
1649
1900
2182
2277
2341
2436
2461
2544
2615
3271
3275
3326
3329
3342
3344
3345
3384
3385
3405
3406
3576
3592
3612
3681
3701
3725
3728
3774
3780
3878
3928
3930
3989
4042
4044
4077
4086
4089
4108
4148
4223
4246
4273
4276
4307
4409
4410
4437
4441
4554
4556
4560
4565
4665
4680
4749
[ 782 ]
1459
1464
1467
1471
1483
1512
1524
1532
1537
1554
1555
2048
2062
2234
2281
3270
3348
3353
3618
3669
3682
3699
3722
3724
3732
3749
3773
3873
4043
4051
4091
4095
4147
4210
4245
4247
4249
4268
4274
4290
4302
4306
4361
4371
4420
4428
4451
4572
4608
4609
4667
4696
4756
4778
[ 783 ]
278
1446
1458
1478
1601
1610
2051
2235
2287
3375
3580
3608
3674
3771
3786
3861
4050
4154
4182
4258
4285
4312
4360
4415
4435
4480
4527
4529
4557
4569
4759
4765
[ 784 ]
1553
2460
3718
4314
4336
4365
4513
4516
4584
4753
[ 785 ]
2149
2159
3386
3569
3575
3802
3813
4127
4180
4357
4419
4534
[ 786 ]
3570
3631
3918
4041
4181
4528
4576
[ 787 ]
4470
4522
[ 788 ]
4505
[ 789 ]
3518
4478
[ 802 ]
2922
[ 803 ]
2836
2840
2900
2906
2917
2926
3035
4860
[ 804 ]
2891
2932
2966
2972
[ 805 ]
2842
2933
3004
3015
3020
3103
4899
4902
[ 806 ]
2835
2866
2986
3014
3052
3097
3112
3115
3116
3124
3135
3142
4868
4886
4890
4893
4894
4901
4923
[ 807 ]
118
2859
2894
2969
2977
2996
3003
3011
3013
3028
3049
3054
3061
3062
3077
3080
3096
3118
3137
3141
3144
3213
3227
3232
3284
4719
4905
4920
4937
5000
[ 808 ]
194
2683
2872
3005
3017
3024
3074
3078
3123
3131
3132
3134
3149
3161
3167
3233
3238
3300
[ 809 ]
2981
2983
3009
3043
3051
3122
3127
3130
3136
3169
3197
3235
3283
3288
3595
4446
4718
[ 810 ]
308
2673
3006
3063
3154
3158
3172
3229
3249
3295
3314
3325
3617
3705
3880
4207
4227
4424
4450
4699
4701
4702
4735
[ 811 ]
2968
3148
3176
3280
3297
3320
3323
3324
3331
3821
4045
4052
4132
4141
4202
4287
4288
4291
4398
4404
4407
4413
4597
4715
4774
[ 812 ]
1776
3600
3673
3706
3708
3710
3726
4149
4163
4164
4267
4269
4286
4299
4429
4431
4438
4444
4452
4539
4549
4553
4703
4752
4769
[ 813 ]
2093
3305
3334
3425
3627
3672
4097
4272
4305
4308
4423
4426
4436
4564
4762
4775
[ 814 ]
1526
3328
3330
3598
3723
3753
4219
4222
4282
4303
4310
4337
4430
4433
4555
4561
4568
4574
4629
[ 815 ]
3333
3339
3599
3721
4260
4262
4263
4279
4283
4403
4418
4440
4550
4562
4577
4611
4771
4772
[ 816 ]
1499
3336
3340
3436
3733
4204
4257
4264
4275
4309
4368
4434
4477
4563
4573
4580
4586
4760
4770
[ 817 ]
3734
4362
4518
4598
4763
[ 818 ]
1536
1550
3547
4482
4499
4612
[ 819 ]
3533
3557
4498
[ 820 ]
3553
4508
[ 821 ]
3925
[ 823 ]
3517
[ 825 ]
3522
[ 826 ]
3519
[ 833 ]
2915
[ 834 ]
2837
2913
[ 835 ]
2892
2898
2904
2921
2925
[ 836 ]
120
2899
2905
2908
2916
2923
2928
2948
2971
2973
2975
2988
4895
4921
4929
4941
[ 837 ]
2911
2927
2961
2989
2993
3019
3021
3069
4896
4922
4924
4938
[ 838 ]
2901
2964
2965
2978
2980
2987
3090
3091
3119
3220
4885
4891
4910
4912
4935
[ 839 ]
122
3007
3022
3082
3088
3162
3164
4878
4909
4914
[ 840 ]
2662
2850
2880
2982
2985
2991
2994
3010
3050
3095
3139
3140
4933
4934
[ 841 ]
3138
3147
3219
4751
4913
[ 842 ]
2984
2990
3319
3622
4776
4777
[ 843 ]
309
3269
3318
3322
4226
4632
[ 844 ]
3615
3696
3704
4277
4411
4634
[ 845 ]
3170
3171
3338
3594
3680
3702
3703
4278
4298
4494
4575
4628
4635
4773
[ 846 ]
4281
4422
4427
4551
4766
[ 847 ]
4270
4280
4294
4300
4533
4566
4582
4600
4607
4619
4768
[ 848 ]
4265
4432
4552
4579
4585
4601
4614
4617
4622
[ 849 ]
3335
3541
3572
3585
4402
4481
4515
4578
4587
4588
4618
[ 850 ]
2459
3545
4311
4523
4536
[ 851 ]
3546
3566
3581
4495
4514
[ 852 ]
3550
4493
4521
[ 853 ]
4506
[ 855 ]
3529
3924
[ 857 ]
3520
[ 865 ]
2919
2924
2949
[ 866 ]
2903
2914
2934
2951
2956
2958
[ 867 ]
2895
2930
2953
2957
4931
[ 868 ]
2897
2909
2938
2939
2943
2970
3000
4900
4904
4911
4939
[ 869 ]
2896
2920
2936
2937
4897
4906
4927
[ 870 ]
2940
2974
4925
4926
4940
[ 871 ]
2963
2979
4898
[ 872 ]
147
2992
3173
4942
[ 873 ]
3317
[ 875 ]
4631
[ 876 ]
3596
3613
[ 877 ]
3316
4625
[ 878 ]
4596
[ 879 ]
3586
4259
4532
4567
4592
4604
[ 880 ]
4261
4590
[ 881 ]
4496
4581
4621
[ 882 ]
4489
4605
[ 883 ]
3552
3562
3567
4490
4583
[ 884 ]
3337
3555
3556
[ 885 ]
3530
3551
3563
[ 886 ]
3534
3539
3542
3548
3554
3559
[ 887 ]
3531
3538
3549
4501
4507
[ 890 ]
3525
[ 897 ]
2929
2955
4930
[ 898 ]
2935
2942
2947
[ 899 ]
2907
2910
2918
2941
2944
2950
2954
2960
4936
[ 900 ]
2962
4889
4907
4918
[ 901 ]
2890
2952
2959
3016
4928
[ 902 ]
3008
3018
4917
[ 903 ]
4916
[ 910 ]
4594
4630
4767
[ 911 ]
3332
4595
[ 912 ]
4591
4615
4623
[ 913 ]
1468
4616
4626
[ 914 ]
4602
4606
4620
[ 915 ]
4487
4488
[ 916 ]
3561
3568
[ 917 ]
3558
3560
3565
[ 918 ]
3532
3535
3536
[ 922 ]
3537
[ 923 ]
3528
[ 928 ]
2946
[ 929 ]
2945
[ 931 ]
4919
[ 932 ]
2902
2912
[ 935 ]
4932
[ 939 ]
3321
[ 943 ]
4593
[ 944 ]
4491
4492
[ 946 ]
4497
[ 947 ]
4603
4627
[ 949 ]
4613
[ 950 ]
3544
4483
[ 952 ]
3564
[ 953 ]
3540
[ 954 ]
3527
[ 958 ]
3524
[ 959 ]
3523
[ 964 ]
4908
[ 969 ]
4915
[ 978 ]
4486
[ 979 ]
4485
[ 980 ]
4624
[ 985 ]
3543
[ 986 ]
3526
[ 1010 ]
4484
