[ 5 ]
1
[ 232 ]
2
[ 260 ]
3
[ 262 ]
4
[ 292 ]
5
[ 293 ]
17
[ 295 ]
29
[ 297 ]
36
[ 322 ]
23
[ 323 ]
18
19
[ 324 ]
27
35
37
[ 325 ]
22
[ 326 ]
16
24
25
30
38
[ 328 ]
21
31
33
41
[ 329 ]
20
32
[ 330 ]
44
[ 331 ]
15
[ 334 ]
34
43
[ 352 ]
7
[ 353 ]
28
[ 355 ]
8
39
[ 356 ]
10
[ 357 ]
6
9
26
45
49
55
[ 358 ]
66
[ 359 ]
12
40
54
[ 360 ]
47
[ 362 ]
42
50
[ 363 ]
46
[ 386 ]
13
[ 387 ]
53
63
79
[ 388 ]
72
[ 389 ]
58
65
69
74
[ 390 ]
51
59
[ 391 ]
11
48
70
[ 396 ]
14
[ 416 ]
129
[ 418 ]
62
[ 419 ]
67
80
83
88
90
[ 420 ]
86
[ 421 ]
61
64
[ 422 ]
76
82
84
85
92
[ 423 ]
68
77
78
91
[ 424 ]
52
[ 425 ]
71
[ 426 ]
56
[ 448 ]
131
[ 450 ]
130
[ 451 ]
60
93
[ 452 ]
73
87
106
110
135
[ 453 ]
57
81
132
134
[ 454 ]
128
[ 455 ]
75
89
[ 457 ]
136
[ 467 ]
179
[ 482 ]
124
[ 485 ]
94
105
[ 487 ]
126
133
[ 488 ]
125
127
204
[ 489 ]
97
112
114
161
[ 490 ]
111
115
173
[ 491 ]
96
101
116
180
185
205
[ 492 ]
184
194
203
[ 493 ]
178
197
207
208
[ 494 ]
176
177
[ 496 ]
202
[ 497 ]
406
[ 498 ]
196
[ 519 ]
103
104
137
140
[ 520 ]
206
[ 521 ]
107
108
142
174
[ 522 ]
98
141
158
200
[ 523 ]
100
160
193
[ 524 ]
117
123
157
195
[ 525 ]
113
182
[ 526 ]
156
183
[ 527 ]
211
397
[ 528 ]
404
405
[ 529 ]
224
399
[ 530 ]
396
[ 533 ]
225
408
[ 534 ]
328
[ 550 ]
99
159
[ 551 ]
102
150
[ 552 ]
95
120
210
[ 553 ]
201
[ 554 ]
165
169
[ 555 ]
121
189
209
[ 556 ]
143
167
168
170
171
190
237
245
[ 557 ]
122
240
[ 558 ]
118
181
186
285
348
[ 559 ]
226
232
270
[ 560 ]
172
198
246
344
401
[ 561 ]
217
218
236
326
402
407
[ 562 ]
187
223
340
400
409
[ 563 ]
325
360
[ 564 ]
191
228
[ 565 ]
345
[ 566 ]
286
[ 567 ]
229
[ 571 ]
410
[ 580 ]
162
[ 581 ]
166
[ 582 ]
155
[ 583 ]
154
163
[ 584 ]
138
149
164
[ 585 ]
139
152
[ 586 ]
119
147
[ 587 ]
153
175
351
[ 589 ]
220
[ 590 ]
199
247
254
[ 591 ]
109
244
251
271
294
324
342
[ 592 ]
349
354
[ 593 ]
256
316
321
322
343
350
353
[ 594 ]
192
233
300
329
332
359
403
432
[ 595 ]
327
[ 596 ]
289
290
358
[ 597 ]
260
323
334
336
352
[ 598 ]
227
259
320
362
[ 599 ]
257
293
338
389
[ 600 ]
255
[ 602 ]
252
[ 603 ]
395
[ 613 ]
146
[ 616 ]
144
145
[ 617 ]
148
151
[ 618 ]
213
219
222
[ 619 ]
188
272
[ 620 ]
306
[ 621 ]
212
440
[ 622 ]
215
302
330
422
[ 623 ]
253
314
347
385
388
413
428
460
[ 624 ]
248
356
386
423
427
[ 625 ]
231
303
305
416
[ 626 ]
287
291
339
398
431
441
[ 627 ]
216
268
317
331
337
341
361
[ 628 ]
258
301
318
346
357
384
412
433
[ 630 ]
267
269
420
[ 631 ]
234
335
[ 633 ]
319
390
[ 648 ]
242
273
[ 650 ]
450
[ 651 ]
580
[ 652 ]
266
[ 653 ]
221
238
[ 654 ]
243
249
262
382
448
462
575
[ 655 ]
297
383
456
459
508
[ 656 ]
304
417
443
452
[ 657 ]
274
299
371
453
470
471
[ 658 ]
263
298
333
438
451
455
[ 659 ]
313
315
419
[ 660 ]
284
391
424
436
442
[ 661 ]
355
444
458
[ 662 ]
309
[ 664 ]
363
393
[ 665 ]
394
[ 669 ]
230
[ 680 ]
573
[ 682 ]
574
[ 683 ]
241
579
[ 684 ]
463
499
557
582
[ 685 ]
461
[ 686 ]
239
288
504
555
558
[ 687 ]
307
425
437
457
466
[ 688 ]
261
418
439
454
469
[ 689 ]
295
468
507
633
[ 690 ]
250
275
281
310
311
387
392
435
[ 691 ]
415
[ 692 ]
312
373
[ 693 ]
235
364
426
429
[ 694 ]
368
[ 695 ]
276
[ 696 ]
367
[ 697 ]
280
[ 698 ]
411
[ 713 ]
501
559
[ 714 ]
477
[ 715 ]
500
[ 716 ]
379
421
498
[ 717 ]
472
473
581
[ 718 ]
449
467
988
[ 719 ]
380
381
434
474
503
636
[ 720 ]
214
464
553
554
584
635
[ 721 ]
376
549
[ 722 ]
264
296
375
787
[ 723 ]
445
[ 725 ]
277
370
[ 726 ]
372
[ 727 ]
366
430
[ 728 ]
282
[ 730 ]
292
[ 731 ]
279
[ 733 ]
278
552
[ 743 ]
651
[ 746 ]
378
528
650
[ 747 ]
932
[ 748 ]
502
653
[ 749 ]
465
562
577
648
649
948
[ 750 ]
578
586
632
989
[ 751 ]
475
530
585
634
678
737
785
[ 752 ]
308
551
626
631
638
676
677
949
986
[ 753 ]
377
478
506
567
933
[ 754 ]
625
974
[ 755 ]
514
[ 756 ]
265
963
[ 757 ]
732
[ 758 ]
736
[ 759 ]
446
447
[ 760 ]
414
[ 761 ]
283
374
[ 778 ]
560
588
[ 779 ]
654
[ 780 ]
476
524
587
862
[ 781 ]
511
556
639
641
652
655
722
778
893
[ 782 ]
509
527
568
780
841
843
866
902
[ 783 ]
532
570
745
801
[ 784 ]
485
491
513
548
564
591
595
630
640
726
739
789
930
[ 785 ]
516
544
561
571
583
590
606
616
784
976
[ 786 ]
495
505
550
788
945
971
977
978
987
[ 787 ]
497
515
611
903
908
[ 788 ]
369
496
510
786
904
906
[ 789 ]
365
612
613
688
734
[ 790 ]
525
569
[ 791 ]
735
975
[ 810 ]
572
646
[ 811 ]
867
[ 812 ]
488
563
663
953
[ 813 ]
518
576
679
794
838
840
905
922
940
990
[ 814 ]
494
542
565
592
619
637
644
779
972
991
998
1000
[ 815 ]
512
647
690
802
839
868
923
943
995
[ 816 ]
482
609
685
712
727
791
844
900
918
931
969
982
[ 817 ]
521
599
694
752
775
781
793
920
[ 818 ]
529
627
629
687
800
929
950
965
[ 819 ]
484
523
531
545
593
594
607
916
919
973
[ 820 ]
589
610
617
751
926
981
[ 821 ]
674
733
747
860
[ 822 ]
724
[ 824 ]
738
984
[ 825 ]
741
[ 842 ]
537
863
[ 843 ]
543
672
[ 844 ]
483
673
[ 845 ]
480
535
602
614
622
951
[ 846 ]
487
533
540
541
598
624
668
681
682
842
875
879
934
952
966
979
993 # this
[ 847 ]
596
615
731
834
836
858
874
894
[ 848 ]
489
519
526
546
600
604
623
642
703
723
812
855
899
921
[ 849 ]
608
693
728
777
792
835
846
847
873
960
980
983
985
994
[ 850 ]
547
660
661
680
695
702
706
760
861
869
876
959
970
[ 851 ]
492
517
522
597
601
620
740
782
790
814
845
896
928
1001
[ 852 ]
486
566
684
689
691
713
806
817
909
962
[ 853 ]
490
675
742
804
907
[ 854 ]
961
[ 855 ]
715
924
[ 856 ]
692
719
[ 857 ]
783
[ 859 ]
748
[ 873 ]
709
[ 874 ]
618
[ 875 ]
536
[ 876 ]
539
664
887
889
938
968
[ 877 ]
683
696
705
865
881
888
892
[ 878 ]
643
656
670
729
877
878
884
[ 879 ]
481
621
710
825
890
939
954
957
[ 880 ]
848
891
895
897
942
[ 881 ]
645
686
803
821
826
911
999
[ 882 ]
605
628
720
774
816
901
913
927
947
992
996
997
[ 883 ]
698
730
746
776
799
807
824
837
872
914
967
[ 884 ]
493
534
725
805
917
946
964
[ 885 ]
697
711
721
755
761
773
856
935
958
[ 886 ]
603
795
811
819
941
[ 887 ]
520
797
871
925
[ 888 ]
749
750
[ 890 ]
852
[ 893 ]
753
[ 904 ]
538
[ 905 ]
882
[ 906 ]
885
[ 907 ]
659
[ 908 ]
886
[ 909 ]
665
[ 910 ]
479
662
666
883
[ 911 ]
701
762
944
[ 912 ]
704
818
864
[ 913 ]
658
669
718
768
822
823
859
[ 914 ]
717
809
830
[ 915 ]
699
744
815
880
[ 916 ]
708
915
937
[ 917 ]
743
798
827
854
857
[ 918 ]
700
707
898
[ 919 ]
808
820
[ 920 ]
754
910
[ 922 ]
912
[ 940 ]
667
[ 944 ]
657
716
828
[ 945 ]
671
767
936
[ 946 ]
955
[ 947 ]
758
870
956
[ 948 ]
714
757
771
850
[ 949 ]
759
[ 950 ]
766
796
810
813
[ 951 ]
756
[ 952 ]
772
[ 953 ]
853
[ 976 ]
769
[ 977 ]
764
[ 981 ]
849
[ 982 ]
770
[ 983 ]
831
[ 985 ]
763
[ 991 ]
851
[ 1009 ]
765
[ 1014 ]
833
[ 1016 ]
829
[ 1017 ]
832
